Compiler and run-time data
===========================================================================
RASPA 2.0.50
Compiled as a 64-bits application
Compiler: gcc 9.4.0
Compile Date = Jul  9 2025, Compile Time = 21:38:18

Wed Jul  9 21:49:36 2025
Simulation started on Wednesday, July 09.
The start time was 09:49 PM.

Hostname:    LapTop2
OS type:     Linux on x86_64
OS release:  6.6.87.2-microsoft-standard-WSL2
OS version:  #1 SMP PREEMPT_DYNAMIC Thu Jun  5 18:30:46 UTC 2025

Simulation
===========================================================================
Dimensions: 3
Random number seed: 1752115762
RASPA directory set to: /home/jaysa/RASPA
String appended to output-files: 
Number of cycles: 1000
Number of initializing cycles: 0
Number of equilibration cycles: 0
Print every: 100
Triclinic boundary condition applied
Timestep: 0.000500
	Degrees of freedom:                        0
	Translational Degrees of freedom:          0
	Rotational Degrees of freedom:             0
	Degrees of freedom Framework:              0


Mutual consistent basic set of units:
======================================
Unit of temperature: Kelvin
Unit of length:      1e-10 [m]
Unit of time:        1e-12 [s]
Unit of mass:        1.66054e-27 [kg]
Unit of charge:      1.60218e-19 [C/particle]

Derived units and their conversion factors:
===========================================
Unit of energy:              1.66054e-23 [J]
Unit of force:               1.66054e-13 [N]
Unit of pressure:            1.66054e+07 [Pa]
Unit of velocity:            100 [m/s]
Unit of acceleration:        1e-08 [m^2/s]
Unit of diffusion:           1e-08 [m^2/s]
Unit of dipole moment:       1.60218e-29 [C.m]
Unit of electric potential:  0.000103643 [V]
Unit of electric field:      1.03643e+06 [V]
Unit of polarizability:      1.54587e-35 [-]
Unit of Coulomb potential:   167101.0800066561  [K]
Unit of dielectric constant: 0.0000154587       [s^2 C^2/(kg m^3)]
Unit of wave vectors:        5.3088374589       [cm^1]
Boltzmann constant:          0.8314464919       [-]

Internal conversion factors:
===========================================
Energy to Kelvin:                                    1.2027242847
FH correction factor                                 2.0211930949
Heat capacity conversion factor:                    10.0000088723
From Debye to internal units:                        4.8032067991
Isothermal compressibility conversion factor:        0.0000000602

Energy conversion factors:
===========================================
From mdyne/A to kcal/mol/A^2:           143.933
From mdyne/A to kj/mol/A^2:             602.214
From mdyne/A to K/A^2:                  72429.7
From mdyne A/rad^2 to kcal/mol/deg^2:   0.0438444


Properties computed
===========================================================================
Movies: no
Radial Distribution Function: no
Number of molecules GCMC histogram: no
Histogram of the molecule positions: no
Free energy profiles: no
Pore Size Distribution Function: no
End-to-end distance: no
Histogram of the energy of the system: no
Compute thermodynamic factors: no
Framework spacing histograms: no
Residence times histograms: no
Distance histograms: no
Bend Angle histograms: no
Dihedral angle histograms: no
Angle between planes histograms: no
Molecule properties: no
Infra-red spectra: no
Mean-squared displacement using modified order-N algorithm: no
Velocity-autocorrelation function modified order-N algorithm: no
Rotational velocity-autocorrelation function modified order-N algorithm: no
Molecular orientation-autocorrelation function modified order-N algorithm: no
Bond orientation-autocorrelation function modified order-N algorithm: no
Mean-squared displacement (conventional algorithm): no
Velocity-autocorrelation function (conventional algorithm): no
3D density grid for adsorbates: no
Compute cation an/or adsorption sites: no
dcTST snapshots: no
Compute pressure and stress: no


VTK
===========================================================================
VTK fractional-range position framework atoms: [-0.001000,1.001000] [-0.001000,1.001000] [-0.001000,1.001000]
VTK fractional-range position framework bonds: [-0.151000,1.151000] [-0.151000,1.151000] [-0.151000,1.151000]
VTK fractional-range com-position adsorbate molecules: [-0.101000,1.101000] [-0.101000,1.101000] [-0.101000,1.101000]
VTK fractional-range com-position cation molecules: [-0.101000,1.101000] [-0.101000,1.101000] [-0.101000,1.101000]
	3D free energy grid made for the full simulation-cell


Thermo/Baro-stat NHC parameters
===========================================================================
External temperature: 300 [K]
Beta: 0.00400908 [energy unit]
External Pressure: 0 [Pa]


Thermostat chain-length: 3
Timescale parameter for thermostat: 0.150000 [ps]
Barostat chain-length:   3
Timescale parameter for barostat:   0.150000 [ps]

Number of Yoshida-Suzuki decomposition steps: 5
Number of respa steps: 5


Method and settings for electrostatics
===============================================================================
Dielectric constant of the medium : 1.000000
Charge from charge-equilibration: yes
Symmetrize the charges of the framework: yes
Ewald summation is used (exact solution of a periodic system)
Relative precision                : 1e-06
Alpha convergence parameter       : 0.265058
kvec (x,y,z)                      : 2 4 8


CFC-RXMC parameters
===========================================================================
Number of reactions: 0


Rattle parameters
===========================================================================
Distance constraint type: r^2-r^2_0
Bend angle constraint type: theta-theta_0
Dihedral angle constraint type: phi-phi_0
Inversion-bend angle constraint type: chi-chi_0
Out-of-plane distance constraint type: r-r_0


Spectra parameters
===========================================================================
Compute normal modes: no


Minimization parameters
===========================================================================
Generalized coordinates are: Cartesian center-of-mass, elements of the orientational matrix p1,p2,p3 and strain
Potential derivatives are evaluated: analytically
Translation of the system is removed from the generalized Hessian: no
Rotation of the system is removed from the generalized Hessian: no
Maximum step-length: 0.3
Convergence factor: 1
Maximum number of minimization steps: 10000
Use gradients in the line-minimizations: yes
RMS gradient tolerance: 1e-06
Maximum gradient tolerance: 1e-06

Distance constraints: 0
Angle constraints: 0
Dihedral constraints: 0

Improper dihedral constraints: 0

Inversion-bend constraints: 0

Out-of-plane constraints: 0

Harmonic distance constraints: 0
Harmonic angle constraints: 0
Harmonic dihedral constraints: 0

Dihedral mid-point measurements: 0

All framework atoms are fixed

Fixed adsorbate atoms:  
Fixed adsorbate groups (center-of-mass):  
Fixed adsorbate groups (orientation):  

Fixed cation atoms:  
Fixed cation groups (center-of-mass):  
Fixed cation groups (orientation):  


dcTST parameters
===========================================================================
Free energy profiles computed: no
Free energy profiles written every 5000 cycles
Free energy mapping: mapped to a,b,c-coordinates
BarrierPosition:       0.0000000000       0.0000000000       0.0000000000
BarrierNormal:         0.0000000000       0.0000000000       0.0000000000
Start with a molecule on top of the barrier: no
Maximum distance to barrier (e.g. distance to minumum free energy):       0.0000000000 [A]
Maximum trajectory time:      10.0000000000 [ps]
Each configuration is used with 5 different initial velocities


Cbmc parameters
===========================================================================
Biasing method: using only the VDW part
Number of trial positions:                                       10
Number of trial positions (reinsertion):                         10
Number of trial positions (partial reinsertion):                 10
Number of trial positions (identity-change):                     10
Number of trial positions (Gibbs particle transfer):             10
Number of trial positions (insertion/deletion):                  10
Number of trial positions (Widom insertion):                     10
Number of trial positions coupled Torsion-selection:             100
Number of trial positions first bead:                            10
Number of trial positions first bead (reinsertion):              10
Number of trial positions first bead (partial reinsertion):      10
Number of trial positions first bead (identity-change):          10
Number of trial positions first bead (Gibbs particle transfer):  10
Number of trial positions first bead (insertion/deletion):       10
Number of trial positions first bead (Widom insertion):          10
Number of trial moves per open bead:                             150
Target acceptance ratio small-mc scheme:                         0.400000
Energy overlap criteria:                                         1e+07
Minimal Rosenbluth factor:                                       1e-150


Pseudo atoms: 25
===========================================================================
Pseudo Atom[   0] Name UNIT     Oxidation:          Element: H    pdb-name: H    Scat. Types:   1   1 Mass=1.000000000  B-factor:0.000   
                 Charge=1.000000000          Polarization=0.000000000  [A^3] (considered a charged atom and no polarization)  Interactions: yes
                 Anisotropic factor:    0.000 [-] (Absolute), Radius:    1.000 [A], Framework-atom:  no
Pseudo Atom[   1] Name CF3      Oxidation: +0       Element: C    pdb-name: C    Scat. Types:   7   6 Mass=69.000000000 B-factor:1.000   
                 Charge=0.000000000          Polarization=0.000000000  [A^3] (considered a chargeless atom and no polarization)  Interactions: yes
                 Anisotropic factor:    0.000 [-] (Relative), Radius:    1.000 [A], Framework-atom:  no
Pseudo Atom[   2] Name CF2      Oxidation: +0       Element: C    pdb-name: C    Scat. Types:   7   6 Mass=50.000000000 B-factor:1.000   
                 Charge=0.000000000          Polarization=0.000000000  [A^3] (considered a chargeless atom and no polarization)  Interactions: yes
                 Anisotropic factor:    0.000 [-] (Relative), Radius:    1.000 [A], Framework-atom:  no
Pseudo Atom[   3] Name CF21     Oxidation: +0       Element: C    pdb-name: C    Scat. Types:   7   6 Mass=50.000000000 B-factor:1.000   
                 Charge=0.120000000          Polarization=0.000000000  [A^3] (considered a charged atom and no polarization)  Interactions: yes
                 Anisotropic factor:    0.000 [-] (Relative), Radius:    1.000 [A], Framework-atom:  no
Pseudo Atom[   4] Name Co       Oxidation: +0       Element: C    pdb-name: C    Scat. Types:   7   6 Mass=12.010000000 B-factor:1.000   
                 Charge=0.420000000          Polarization=0.000000000  [A^3] (considered a charged atom and no polarization)  Interactions: yes
                 Anisotropic factor:    0.000 [-] (Relative), Radius:    0.700 [A], Framework-atom:  no
Pseudo Atom[   5] Name Oc       Oxidation: +0       Element: O    pdb-name: O    Scat. Types:   9   8 Mass=15.999000000 B-factor:1.000   
                 Charge=-0.450000000         Polarization=0.000000000  [A^3] (considered a charged atom and no polarization)  Interactions: yes
                 Anisotropic factor:    0.000 [-] (Relative), Radius:    0.700 [A], Framework-atom:  no
Pseudo Atom[   6] Name Oh       Oxidation: +0       Element: O    pdb-name: O    Scat. Types:   9   8 Mass=15.999000000 B-factor:1.000   
                 Charge=-0.460000000         Polarization=0.000000000  [A^3] (considered a charged atom and no polarization)  Interactions: yes
                 Anisotropic factor:    0.000 [-] (Relative), Radius:    1.000 [A], Framework-atom:  no
Pseudo Atom[   7] Name Ho       Oxidation: +0       Element: H    pdb-name: H    Scat. Types:   1   1 Mass=1.008000000  B-factor:1.000   
                 Charge=0.370000000          Polarization=0.000000000  [A^3] (considered a charged atom and no polarization)  Interactions: yes
                 Anisotropic factor:    0.000 [-] (Relative), Radius:    0.000 [A], Framework-atom:  no
Pseudo Atom[   8] Name Ow       Oxidation: +0       Element: O    pdb-name: O    Scat. Types:   9   8 Mass=15.999400000 B-factor:1.000   
                 Charge=-0.241000000         Polarization=0.000000000  [A^3] (considered a charged atom and no polarization)  Interactions: yes
                 Anisotropic factor:    0.000 [-] (Absolute), Radius:    0.500 [A], Framework-atom:  no
Pseudo Atom[   9] Name Hw       Oxidation: +0       Element: H    pdb-name: H    Scat. Types:   1   1 Mass=1.000800000  B-factor:1.000   
                 Charge=0.482000000          Polarization=0.000000000  [A^3] (considered a charged atom and no polarization)  Interactions: yes
                 Anisotropic factor:    0.000 [-] (Absolute), Radius:    1.000 [A], Framework-atom:  no
Pseudo Atom[  10] Name He       Oxidation: +0       Element: He   pdb-name: He   Scat. Types:   3   2 Mass=4.002602000  B-factor:1.000   
                 Charge=0.000000000          Polarization=0.000000000  [A^3] (considered a chargeless atom and no polarization)  Interactions: yes
                 Anisotropic factor:    0.000 [-] (Relative), Radius:    1.000 [A], Framework-atom:  no
Pseudo Atom[  11] Name Al1      Oxidation:          Element: Al   pdb-name: Al   Scat. Types:  14  13 Mass=26.981538630 B-factor:0.000   
                 Charge=5.872497839  (-na-)  Polarization=6.800000000  [A^3] (considered a charged atom and no polarization)  Interactions: yes
                 Anisotropic factor:    0.000 [-] (Absolute), Radius:    1.240 [A], Framework-atom: yes (charge definition not found)
Pseudo Atom[  12] Name Al2      Oxidation:          Element: Al   pdb-name: Al   Scat. Types:  14  13 Mass=26.981538630 B-factor:0.000   
                 Charge=5.237519180  (-na-)  Polarization=6.800000000  [A^3] (considered a charged atom and no polarization)  Interactions: yes
                 Anisotropic factor:    0.000 [-] (Absolute), Radius:    1.240 [A], Framework-atom: yes (charge definition not found)
Pseudo Atom[  13] Name O1       Oxidation:          Element: O    pdb-name: O    Scat. Types:   9   8 Mass=15.999404927 B-factor:0.000   
                 Charge=-2.214192089 (-na-)  Polarization=0.802000000  [A^3] (considered a charged atom and no polarization)  Interactions: yes
                 Anisotropic factor:    0.000 [-] (Absolute), Radius:    0.640 [A], Framework-atom: yes (charge definition not found)
Pseudo Atom[  14] Name O2       Oxidation:          Element: O    pdb-name: O    Scat. Types:   9   8 Mass=15.999404927 B-factor:0.000   
                 Charge=-1.163578295 (-na-)  Polarization=0.802000000  [A^3] (considered a charged atom and no polarization)  Interactions: yes
                 Anisotropic factor:    0.000 [-] (Absolute), Radius:    0.640 [A], Framework-atom: yes (charge definition not found)
Pseudo Atom[  15] Name O3       Oxidation:          Element: O    pdb-name: O    Scat. Types:   9   8 Mass=15.999404927 B-factor:0.000   
                 Charge=-1.306224591 (-na-)  Polarization=0.802000000  [A^3] (considered a charged atom and no polarization)  Interactions: yes
                 Anisotropic factor:    0.000 [-] (Absolute), Radius:    0.640 [A], Framework-atom: yes (charge definition not found)
Pseudo Atom[  16] Name O4       Oxidation:          Element: O    pdb-name: O    Scat. Types:   9   8 Mass=15.999404927 B-factor:0.000   
                 Charge=-1.522354863 (-na-)  Polarization=0.802000000  [A^3] (considered a charged atom and no polarization)  Interactions: yes
                 Anisotropic factor:    0.000 [-] (Absolute), Radius:    0.640 [A], Framework-atom: yes (charge definition not found)
Pseudo Atom[  17] Name O5       Oxidation:          Element: O    pdb-name: O    Scat. Types:   9   8 Mass=15.999404927 B-factor:0.000   
                 Charge=-1.371807135 (-na-)  Polarization=0.802000000  [A^3] (considered a charged atom and no polarization)  Interactions: yes
                 Anisotropic factor:    0.000 [-] (Absolute), Radius:    0.640 [A], Framework-atom: yes (charge definition not found)
Pseudo Atom[  18] Name C1       Oxidation:          Element: C    pdb-name: C    Scat. Types:   7   6 Mass=12.010735897 B-factor:0.000   
                 Charge=0.788881189  (-na-)  Polarization=1.760000000  [A^3] (considered a charged atom and no polarization)  Interactions: yes
                 Anisotropic factor:    0.000 [-] (Absolute), Radius:    0.750 [A], Framework-atom: yes (charge definition not found)
Pseudo Atom[  19] Name C2       Oxidation:          Element: C    pdb-name: C    Scat. Types:   7   6 Mass=12.010735897 B-factor:0.000   
                 Charge=-0.132118091 (-na-)  Polarization=1.760000000  [A^3] (considered a charged atom and no polarization)  Interactions: yes
                 Anisotropic factor:    0.000 [-] (Absolute), Radius:    0.750 [A], Framework-atom: yes (charge definition not found)
Pseudo Atom[  20] Name C3       Oxidation:          Element: C    pdb-name: C    Scat. Types:   7   6 Mass=12.010735897 B-factor:0.000   
                 Charge=-0.355554399 (-na-)  Polarization=1.760000000  [A^3] (considered a charged atom and no polarization)  Interactions: yes
                 Anisotropic factor:    0.000 [-] (Absolute), Radius:    0.750 [A], Framework-atom: yes (charge definition not found)
Pseudo Atom[  21] Name C4       Oxidation:          Element: C    pdb-name: C    Scat. Types:   7   6 Mass=12.010735897 B-factor:0.000   
                 Charge=1.237941969  (-na-)  Polarization=1.760000000  [A^3] (considered a charged atom and no polarization)  Interactions: yes
                 Anisotropic factor:    0.000 [-] (Absolute), Radius:    0.750 [A], Framework-atom: yes (charge definition not found)
Pseudo Atom[  22] Name H2       Oxidation:          Element: H    pdb-name: H    Scat. Types:   1   1 Mass=1.007940754  B-factor:0.000   
                 Charge=0.040574928  (-na-)  Polarization=0.666793000  [A^3] (considered a charged atom and no polarization)  Interactions: yes
                 Anisotropic factor:    0.000 [-] (Absolute), Radius:    0.320 [A], Framework-atom: yes (charge definition not found)
Pseudo Atom[  23] Name H3       Oxidation:          Element: H    pdb-name: H    Scat. Types:   1   1 Mass=1.007940754  B-factor:0.000   
                 Charge=0.098965159  (-na-)  Polarization=0.666793000  [A^3] (considered a charged atom and no polarization)  Interactions: yes
                 Anisotropic factor:    0.000 [-] (Absolute), Radius:    0.320 [A], Framework-atom: yes (charge definition not found)
Pseudo Atom[  24] Name H1       Oxidation:          Element: H    pdb-name: H    Scat. Types:   1   1 Mass=1.007940754  B-factor:0.000   
                 Charge=0.344457709  (-na-)  Polarization=0.666793000  [A^3] (considered a charged atom and no polarization)  Interactions: yes
                 Anisotropic factor:    0.000 [-] (Absolute), Radius:    0.320 [A], Framework-atom: yes (charge definition not found)


Forcefield: local
===========================================================================
Minimal distance: 1
CutOff VDW : 12.000000 (144.000000)
CutOff VDW switching on: 10.800000 (116.640000)
CutOff charge-charge : 12.000000 (144.000000)
CutOff charge-charge switching on: 7.800000 (60.840000)
CutOff charge-bonddipole : 12.000000 (144.000000)
CutOff charge-bondipole switching on: 8.400000 (70.560000)
CutOff bonddipole-bonddipole : 12.000000 (144.000000)
CutOff bonddipole-bondipole switching on: 9.000000 (81.000000)
Polarization is neglected
All potentials are shifted to zero at the Cutoff

General mixing rule: Lorentz-Berthelot mixing rules are used FIRST for cross terms
0 cross terms are overwritten using the individual mixing rules from the file 'force_field_mixing_rules.def'
and then 0 terms are overwritten using the specific interactions from the file 'force_field.def'

The force field and all the interactions:
    CF3 -     CF3 [LENNARD_JONES] p_0/k_B:  87.00000 [K], p_1: 4.36000 [A], shift/k_B:  -0.79874920 [K], tailcorrection: no
    CF3 -     CF2 [LENNARD_JONES] p_0/k_B:  48.91319 [K], p_1: 4.54500 [A], shift/k_B:  -0.57586128 [K], tailcorrection: no
    CF3 -    CF21 [LENNARD_JONES] p_0/k_B:  48.91319 [K], p_1: 4.54500 [A], shift/k_B:  -0.57586128 [K], tailcorrection: no
    CF3 -      Co [LENNARD_JONES] p_0/k_B:  59.72437 [K], p_1: 4.13000 [A], shift/k_B:  -0.39637113 [K], tailcorrection: no
    CF3 -      Oc [LENNARD_JONES] p_0/k_B:  82.90356 [K], p_1: 3.70500 [A], shift/k_B:  -0.28701103 [K], tailcorrection: no
    CF3 -      Oh [LENNARD_JONES] p_0/k_B:  89.94999 [K], p_1: 3.69000 [A], shift/k_B:  -0.30392365 [K], tailcorrection: no
    CF3 -      Ho [ZERO_POTENTIAL]
    CF3 -      Ow [LENNARD_JONES] p_0/k_B:  64.72831 [K], p_1: 3.69658 [A], shift/k_B:  -0.22105110 [K], tailcorrection: no
    CF3 -      Hw [ZERO_POTENTIAL]
    CF3 -      He [LENNARD_JONES] p_0/k_B:  30.79448 [K], p_1: 3.50000 [A], shift/k_B:  -0.07578552 [K], tailcorrection: no
    CF3 -     Al1 [LENNARD_JONES] p_0/k_B: 116.49818 [K], p_1: 4.13553 [A], shift/k_B:  -0.77937661 [K], tailcorrection: no
    CF3 -     Al2 [LENNARD_JONES] p_0/k_B: 116.49818 [K], p_1: 4.13553 [A], shift/k_B:  -0.77937661 [K], tailcorrection: no
    CF3 -      O1 [LENNARD_JONES] p_0/k_B:  64.72831 [K], p_1: 3.69658 [A], shift/k_B:  -0.22105110 [K], tailcorrection: no
    CF3 -      O2 [LENNARD_JONES] p_0/k_B:  64.72831 [K], p_1: 3.69658 [A], shift/k_B:  -0.22105110 [K], tailcorrection: no
    CF3 -      O3 [LENNARD_JONES] p_0/k_B:  64.72831 [K], p_1: 3.69658 [A], shift/k_B:  -0.22105110 [K], tailcorrection: no
    CF3 -      O4 [LENNARD_JONES] p_0/k_B:  64.72831 [K], p_1: 3.69658 [A], shift/k_B:  -0.22105110 [K], tailcorrection: no
    CF3 -      O5 [LENNARD_JONES] p_0/k_B:  64.72831 [K], p_1: 3.69658 [A], shift/k_B:  -0.22105110 [K], tailcorrection: no
    CF3 -      C1 [LENNARD_JONES] p_0/k_B:  64.52511 [K], p_1: 3.91650 [A], shift/k_B:  -0.31157419 [K], tailcorrection: no
    CF3 -      C2 [LENNARD_JONES] p_0/k_B:  64.52511 [K], p_1: 3.91650 [A], shift/k_B:  -0.31157419 [K], tailcorrection: no
    CF3 -      C3 [LENNARD_JONES] p_0/k_B:  64.52511 [K], p_1: 3.91650 [A], shift/k_B:  -0.31157419 [K], tailcorrection: no
    CF3 -      C4 [LENNARD_JONES] p_0/k_B:  64.52511 [K], p_1: 3.91650 [A], shift/k_B:  -0.31157419 [K], tailcorrection: no
    CF3 -      H2 [LENNARD_JONES] p_0/k_B:  25.79645 [K], p_1: 3.60321 [A], shift/k_B:  -0.07557036 [K], tailcorrection: no
    CF3 -      H3 [LENNARD_JONES] p_0/k_B:  25.79645 [K], p_1: 3.60321 [A], shift/k_B:  -0.07557036 [K], tailcorrection: no
    CF3 -      H1 [LENNARD_JONES] p_0/k_B:  25.79645 [K], p_1: 3.60321 [A], shift/k_B:  -0.07557036 [K], tailcorrection: no
    CF2 -     CF2 [LENNARD_JONES] p_0/k_B:  27.50000 [K], p_1: 4.73000 [A], shift/k_B:  -0.41099847 [K], tailcorrection: no
    CF2 -    CF21 [LENNARD_JONES] p_0/k_B:  27.50000 [K], p_1: 4.73000 [A], shift/k_B:  -0.41099847 [K], tailcorrection: no
    CF2 -      Co [LENNARD_JONES] p_0/k_B:  33.57827 [K], p_1: 4.31500 [A], shift/k_B:  -0.28971819 [K], tailcorrection: no
    CF2 -      Oc [LENNARD_JONES] p_0/k_B:  46.61008 [K], p_1: 3.89000 [A], shift/k_B:  -0.21609552 [K], tailcorrection: no
    CF2 -      Oh [LENNARD_JONES] p_0/k_B:  50.57173 [K], p_1: 3.87500 [A], shift/k_B:  -0.22909620 [K], tailcorrection: no
    CF2 -      Ho [ZERO_POTENTIAL]
    CF2 -      Ow [LENNARD_JONES] p_0/k_B:  36.39159 [K], p_1: 3.88158 [A], shift/k_B:  -0.16654197 [K], tailcorrection: no
    CF2 -      Hw [ZERO_POTENTIAL]
    CF2 -      He [LENNARD_JONES] p_0/k_B:  17.31329 [K], p_1: 3.68500 [A], shift/k_B:  -0.05802468 [K], tailcorrection: no
    CF2 -     Al1 [LENNARD_JONES] p_0/k_B:  65.49767 [K], p_1: 4.32052 [A], shift/k_B:  -0.56946944 [K], tailcorrection: no
    CF2 -     Al2 [LENNARD_JONES] p_0/k_B:  65.49767 [K], p_1: 4.32052 [A], shift/k_B:  -0.56946944 [K], tailcorrection: no
    CF2 -      O1 [LENNARD_JONES] p_0/k_B:  36.39159 [K], p_1: 3.88158 [A], shift/k_B:  -0.16654197 [K], tailcorrection: no
    CF2 -      O2 [LENNARD_JONES] p_0/k_B:  36.39159 [K], p_1: 3.88158 [A], shift/k_B:  -0.16654197 [K], tailcorrection: no
    CF2 -      O3 [LENNARD_JONES] p_0/k_B:  36.39159 [K], p_1: 3.88158 [A], shift/k_B:  -0.16654197 [K], tailcorrection: no
    CF2 -      O4 [LENNARD_JONES] p_0/k_B:  36.39159 [K], p_1: 3.88158 [A], shift/k_B:  -0.16654197 [K], tailcorrection: no
    CF2 -      O5 [LENNARD_JONES] p_0/k_B:  36.39159 [K], p_1: 3.88158 [A], shift/k_B:  -0.16654197 [K], tailcorrection: no
    CF2 -      C1 [LENNARD_JONES] p_0/k_B:  36.27734 [K], p_1: 4.10149 [A], shift/k_B:  -0.23097669 [K], tailcorrection: no
    CF2 -      C2 [LENNARD_JONES] p_0/k_B:  36.27734 [K], p_1: 4.10149 [A], shift/k_B:  -0.23097669 [K], tailcorrection: no
    CF2 -      C3 [LENNARD_JONES] p_0/k_B:  36.27734 [K], p_1: 4.10149 [A], shift/k_B:  -0.23097669 [K], tailcorrection: no
    CF2 -      C4 [LENNARD_JONES] p_0/k_B:  36.27734 [K], p_1: 4.10149 [A], shift/k_B:  -0.23097669 [K], tailcorrection: no
    CF2 -      H2 [LENNARD_JONES] p_0/k_B:  14.50330 [K], p_1: 3.78821 [A], shift/k_B:  -0.05736057 [K], tailcorrection: no
    CF2 -      H3 [LENNARD_JONES] p_0/k_B:  14.50330 [K], p_1: 3.78821 [A], shift/k_B:  -0.05736057 [K], tailcorrection: no
    CF2 -      H1 [LENNARD_JONES] p_0/k_B:  14.50330 [K], p_1: 3.78821 [A], shift/k_B:  -0.05736057 [K], tailcorrection: no
   CF21 -    CF21 [LENNARD_JONES] p_0/k_B:  27.50000 [K], p_1: 4.73000 [A], shift/k_B:  -0.41099847 [K], tailcorrection: no
   CF21 -      Co [LENNARD_JONES] p_0/k_B:  33.57827 [K], p_1: 4.31500 [A], shift/k_B:  -0.28971819 [K], tailcorrection: no
   CF21 -      Oc [LENNARD_JONES] p_0/k_B:  46.61008 [K], p_1: 3.89000 [A], shift/k_B:  -0.21609552 [K], tailcorrection: no
   CF21 -      Oh [LENNARD_JONES] p_0/k_B:  50.57173 [K], p_1: 3.87500 [A], shift/k_B:  -0.22909620 [K], tailcorrection: no
   CF21 -      Ho [ZERO_POTENTIAL]
   CF21 -      Ow [LENNARD_JONES] p_0/k_B:  36.39159 [K], p_1: 3.88158 [A], shift/k_B:  -0.16654197 [K], tailcorrection: no
   CF21 -      Hw [ZERO_POTENTIAL]
   CF21 -      He [LENNARD_JONES] p_0/k_B:  17.31329 [K], p_1: 3.68500 [A], shift/k_B:  -0.05802468 [K], tailcorrection: no
   CF21 -     Al1 [LENNARD_JONES] p_0/k_B:  65.49767 [K], p_1: 4.32052 [A], shift/k_B:  -0.56946944 [K], tailcorrection: no
   CF21 -     Al2 [LENNARD_JONES] p_0/k_B:  65.49767 [K], p_1: 4.32052 [A], shift/k_B:  -0.56946944 [K], tailcorrection: no
   CF21 -      O1 [LENNARD_JONES] p_0/k_B:  36.39159 [K], p_1: 3.88158 [A], shift/k_B:  -0.16654197 [K], tailcorrection: no
   CF21 -      O2 [LENNARD_JONES] p_0/k_B:  36.39159 [K], p_1: 3.88158 [A], shift/k_B:  -0.16654197 [K], tailcorrection: no
   CF21 -      O3 [LENNARD_JONES] p_0/k_B:  36.39159 [K], p_1: 3.88158 [A], shift/k_B:  -0.16654197 [K], tailcorrection: no
   CF21 -      O4 [LENNARD_JONES] p_0/k_B:  36.39159 [K], p_1: 3.88158 [A], shift/k_B:  -0.16654197 [K], tailcorrection: no
   CF21 -      O5 [LENNARD_JONES] p_0/k_B:  36.39159 [K], p_1: 3.88158 [A], shift/k_B:  -0.16654197 [K], tailcorrection: no
   CF21 -      C1 [LENNARD_JONES] p_0/k_B:  36.27734 [K], p_1: 4.10149 [A], shift/k_B:  -0.23097669 [K], tailcorrection: no
   CF21 -      C2 [LENNARD_JONES] p_0/k_B:  36.27734 [K], p_1: 4.10149 [A], shift/k_B:  -0.23097669 [K], tailcorrection: no
   CF21 -      C3 [LENNARD_JONES] p_0/k_B:  36.27734 [K], p_1: 4.10149 [A], shift/k_B:  -0.23097669 [K], tailcorrection: no
   CF21 -      C4 [LENNARD_JONES] p_0/k_B:  36.27734 [K], p_1: 4.10149 [A], shift/k_B:  -0.23097669 [K], tailcorrection: no
   CF21 -      H2 [LENNARD_JONES] p_0/k_B:  14.50330 [K], p_1: 3.78821 [A], shift/k_B:  -0.05736057 [K], tailcorrection: no
   CF21 -      H3 [LENNARD_JONES] p_0/k_B:  14.50330 [K], p_1: 3.78821 [A], shift/k_B:  -0.05736057 [K], tailcorrection: no
   CF21 -      H1 [LENNARD_JONES] p_0/k_B:  14.50330 [K], p_1: 3.78821 [A], shift/k_B:  -0.05736057 [K], tailcorrection: no
     Co -      Co [LENNARD_JONES] p_0/k_B:  41.00000 [K], p_1: 3.90000 [A], shift/k_B:  -0.19303316 [K], tailcorrection: no
     Co -      Oc [LENNARD_JONES] p_0/k_B:  56.91221 [K], p_1: 3.47500 [A], shift/k_B:  -0.13416853 [K], tailcorrection: no
     Co -      Oh [LENNARD_JONES] p_0/k_B:  61.74949 [K], p_1: 3.46000 [A], shift/k_B:  -0.14184463 [K], tailcorrection: no
     Co -      Ho [ZERO_POTENTIAL]
     Co -      Ow [LENNARD_JONES] p_0/k_B:  44.43514 [K], p_1: 3.46657 [A], shift/k_B:  -0.10324053 [K], tailcorrection: no
     Co -      Hw [ZERO_POTENTIAL]
     Co -      He [LENNARD_JONES] p_0/k_B:  21.14001 [K], p_1: 3.27000 [A], shift/k_B:  -0.03460878 [K], tailcorrection: no
     Co -     Al1 [LENNARD_JONES] p_0/k_B:  79.97448 [K], p_1: 3.90552 [A], shift/k_B:  -0.37973798 [K], tailcorrection: no
     Co -     Al2 [LENNARD_JONES] p_0/k_B:  79.97448 [K], p_1: 3.90552 [A], shift/k_B:  -0.37973798 [K], tailcorrection: no
     Co -      O1 [LENNARD_JONES] p_0/k_B:  44.43514 [K], p_1: 3.46657 [A], shift/k_B:  -0.10324053 [K], tailcorrection: no
     Co -      O2 [LENNARD_JONES] p_0/k_B:  44.43514 [K], p_1: 3.46657 [A], shift/k_B:  -0.10324053 [K], tailcorrection: no
     Co -      O3 [LENNARD_JONES] p_0/k_B:  44.43514 [K], p_1: 3.46657 [A], shift/k_B:  -0.10324053 [K], tailcorrection: no
     Co -      O4 [LENNARD_JONES] p_0/k_B:  44.43514 [K], p_1: 3.46657 [A], shift/k_B:  -0.10324053 [K], tailcorrection: no
     Co -      O5 [LENNARD_JONES] p_0/k_B:  44.43514 [K], p_1: 3.46657 [A], shift/k_B:  -0.10324053 [K], tailcorrection: no
     Co -      C1 [LENNARD_JONES] p_0/k_B:  44.29565 [K], p_1: 3.68649 [A], shift/k_B:  -0.14881620 [K], tailcorrection: no
     Co -      C2 [LENNARD_JONES] p_0/k_B:  44.29565 [K], p_1: 3.68649 [A], shift/k_B:  -0.14881620 [K], tailcorrection: no
     Co -      C3 [LENNARD_JONES] p_0/k_B:  44.29565 [K], p_1: 3.68649 [A], shift/k_B:  -0.14881620 [K], tailcorrection: no
     Co -      C4 [LENNARD_JONES] p_0/k_B:  44.29565 [K], p_1: 3.68649 [A], shift/k_B:  -0.14881620 [K], tailcorrection: no
     Co -      H2 [LENNARD_JONES] p_0/k_B:  17.70893 [K], p_1: 3.37321 [A], shift/k_B:  -0.03493098 [K], tailcorrection: no
     Co -      H3 [LENNARD_JONES] p_0/k_B:  17.70893 [K], p_1: 3.37321 [A], shift/k_B:  -0.03493098 [K], tailcorrection: no
     Co -      H1 [LENNARD_JONES] p_0/k_B:  17.70893 [K], p_1: 3.37321 [A], shift/k_B:  -0.03493098 [K], tailcorrection: no
     Oc -      Oc [LENNARD_JONES] p_0/k_B:  79.00000 [K], p_1: 3.05000 [A], shift/k_B:  -0.08516900 [K], tailcorrection: no
     Oc -      Oh [LENNARD_JONES] p_0/k_B:  85.71464 [K], p_1: 3.03500 [A], shift/k_B:  -0.08971520 [K], tailcorrection: no
     Oc -      Ho [ZERO_POTENTIAL]
     Oc -      Ow [LENNARD_JONES] p_0/k_B:  61.68055 [K], p_1: 3.04157 [A], shift/k_B:  -0.06540286 [K], tailcorrection: no
     Oc -      Hw [ZERO_POTENTIAL]
     Oc -      He [LENNARD_JONES] p_0/k_B:  29.34451 [K], p_1: 2.84500 [A], shift/k_B:  -0.02084087 [K], tailcorrection: no
     Oc -     Al1 [LENNARD_JONES] p_0/k_B: 111.01280 [K], p_1: 3.48053 [A], shift/k_B:  -0.26421379 [K], tailcorrection: no
     Oc -     Al2 [LENNARD_JONES] p_0/k_B: 111.01280 [K], p_1: 3.48053 [A], shift/k_B:  -0.26421379 [K], tailcorrection: no
     Oc -      O1 [LENNARD_JONES] p_0/k_B:  61.68055 [K], p_1: 3.04157 [A], shift/k_B:  -0.06540286 [K], tailcorrection: no
     Oc -      O2 [LENNARD_JONES] p_0/k_B:  61.68055 [K], p_1: 3.04157 [A], shift/k_B:  -0.06540286 [K], tailcorrection: no
     Oc -      O3 [LENNARD_JONES] p_0/k_B:  61.68055 [K], p_1: 3.04157 [A], shift/k_B:  -0.06540286 [K], tailcorrection: no
     Oc -      O4 [LENNARD_JONES] p_0/k_B:  61.68055 [K], p_1: 3.04157 [A], shift/k_B:  -0.06540286 [K], tailcorrection: no
     Oc -      O5 [LENNARD_JONES] p_0/k_B:  61.68055 [K], p_1: 3.04157 [A], shift/k_B:  -0.06540286 [K], tailcorrection: no
     Oc -      C1 [LENNARD_JONES] p_0/k_B:  61.48691 [K], p_1: 3.26150 [A], shift/k_B:  -0.09910153 [K], tailcorrection: no
     Oc -      C2 [LENNARD_JONES] p_0/k_B:  61.48691 [K], p_1: 3.26150 [A], shift/k_B:  -0.09910153 [K], tailcorrection: no
     Oc -      C3 [LENNARD_JONES] p_0/k_B:  61.48691 [K], p_1: 3.26150 [A], shift/k_B:  -0.09910153 [K], tailcorrection: no
     Oc -      C4 [LENNARD_JONES] p_0/k_B:  61.48691 [K], p_1: 3.26150 [A], shift/k_B:  -0.09910153 [K], tailcorrection: no
     Oc -      H2 [LENNARD_JONES] p_0/k_B:  24.58181 [K], p_1: 2.94821 [A], shift/k_B:  -0.02161929 [K], tailcorrection: no
     Oc -      H3 [LENNARD_JONES] p_0/k_B:  24.58181 [K], p_1: 2.94821 [A], shift/k_B:  -0.02161929 [K], tailcorrection: no
     Oc -      H1 [LENNARD_JONES] p_0/k_B:  24.58181 [K], p_1: 2.94821 [A], shift/k_B:  -0.02161929 [K], tailcorrection: no
     Oh -      Oh [LENNARD_JONES] p_0/k_B:  93.00000 [K], p_1: 3.02000 [A], shift/k_B:  -0.09449020 [K], tailcorrection: no
     Oh -      Ho [ZERO_POTENTIAL]
     Oh -      Ow [LENNARD_JONES] p_0/k_B:  66.92311 [K], p_1: 3.02658 [A], shift/k_B:  -0.06888830 [K], tailcorrection: no
     Oh -      Hw [ZERO_POTENTIAL]
     Oh -      He [LENNARD_JONES] p_0/k_B:  31.83866 [K], p_1: 2.83000 [A], shift/k_B:  -0.02190641 [K], tailcorrection: no
     Oh -     Al1 [LENNARD_JONES] p_0/k_B: 120.44839 [K], p_1: 3.46552 [A], shift/k_B:  -0.27934165 [K], tailcorrection: no
     Oh -     Al2 [LENNARD_JONES] p_0/k_B: 120.44839 [K], p_1: 3.46552 [A], shift/k_B:  -0.27934165 [K], tailcorrection: no
     Oh -      O1 [LENNARD_JONES] p_0/k_B:  66.92311 [K], p_1: 3.02658 [A], shift/k_B:  -0.06888830 [K], tailcorrection: no
     Oh -      O2 [LENNARD_JONES] p_0/k_B:  66.92311 [K], p_1: 3.02658 [A], shift/k_B:  -0.06888830 [K], tailcorrection: no
     Oh -      O3 [LENNARD_JONES] p_0/k_B:  66.92311 [K], p_1: 3.02658 [A], shift/k_B:  -0.06888830 [K], tailcorrection: no
     Oh -      O4 [LENNARD_JONES] p_0/k_B:  66.92311 [K], p_1: 3.02658 [A], shift/k_B:  -0.06888830 [K], tailcorrection: no
     Oh -      O5 [LENNARD_JONES] p_0/k_B:  66.92311 [K], p_1: 3.02658 [A], shift/k_B:  -0.06888830 [K], tailcorrection: no
     Oh -      C1 [LENNARD_JONES] p_0/k_B:  66.71302 [K], p_1: 3.24649 [A], shift/k_B:  -0.10459266 [K], tailcorrection: no
     Oh -      C2 [LENNARD_JONES] p_0/k_B:  66.71302 [K], p_1: 3.24649 [A], shift/k_B:  -0.10459266 [K], tailcorrection: no
     Oh -      C3 [LENNARD_JONES] p_0/k_B:  66.71302 [K], p_1: 3.24649 [A], shift/k_B:  -0.10459266 [K], tailcorrection: no
     Oh -      C4 [LENNARD_JONES] p_0/k_B:  66.71302 [K], p_1: 3.24649 [A], shift/k_B:  -0.10459266 [K], tailcorrection: no
     Oh -      H2 [LENNARD_JONES] p_0/k_B:  26.67115 [K], p_1: 2.93321 [A], shift/k_B:  -0.02274996 [K], tailcorrection: no
     Oh -      H3 [LENNARD_JONES] p_0/k_B:  26.67115 [K], p_1: 2.93321 [A], shift/k_B:  -0.02274996 [K], tailcorrection: no
     Oh -      H1 [LENNARD_JONES] p_0/k_B:  26.67115 [K], p_1: 2.93321 [A], shift/k_B:  -0.02274996 [K], tailcorrection: no
     Ho -      Ho [ZERO_POTENTIAL]
     Ho -      Ow [ZERO_POTENTIAL]
     Ho -      Hw [ZERO_POTENTIAL]
     Ho -      He [ZERO_POTENTIAL]
     Ho -     Al1 [ZERO_POTENTIAL]
     Ho -     Al2 [ZERO_POTENTIAL]
     Ho -      O1 [ZERO_POTENTIAL]
     Ho -      O2 [ZERO_POTENTIAL]
     Ho -      O3 [ZERO_POTENTIAL]
     Ho -      O4 [ZERO_POTENTIAL]
     Ho -      O5 [ZERO_POTENTIAL]
     Ho -      C1 [ZERO_POTENTIAL]
     Ho -      C2 [ZERO_POTENTIAL]
     Ho -      C3 [ZERO_POTENTIAL]
     Ho -      C4 [ZERO_POTENTIAL]
     Ho -      H2 [ZERO_POTENTIAL]
     Ho -      H3 [ZERO_POTENTIAL]
     Ho -      H1 [ZERO_POTENTIAL]
     Ow -      Ow [LENNARD_JONES] p_0/k_B:  48.15810 [K], p_1: 3.03315 [A], shift/k_B:  -0.05022176 [K], tailcorrection: no
     Ow -      Hw [ZERO_POTENTIAL]
     Ow -      He [LENNARD_JONES] p_0/k_B:  22.91120 [K], p_1: 2.83657 [A], shift/k_B:  -0.01598491 [K], tailcorrection: no
     Ow -     Al1 [LENNARD_JONES] p_0/k_B:  86.67507 [K], p_1: 3.47210 [A], shift/k_B:  -0.20331300 [K], tailcorrection: no
     Ow -     Al2 [LENNARD_JONES] p_0/k_B:  86.67507 [K], p_1: 3.47210 [A], shift/k_B:  -0.20331300 [K], tailcorrection: no
     Ow -      O1 [LENNARD_JONES] p_0/k_B:  48.15810 [K], p_1: 3.03315 [A], shift/k_B:  -0.05022176 [K], tailcorrection: no
     Ow -      O2 [LENNARD_JONES] p_0/k_B:  48.15810 [K], p_1: 3.03315 [A], shift/k_B:  -0.05022176 [K], tailcorrection: no
     Ow -      O3 [LENNARD_JONES] p_0/k_B:  48.15810 [K], p_1: 3.03315 [A], shift/k_B:  -0.05022176 [K], tailcorrection: no
     Ow -      O4 [LENNARD_JONES] p_0/k_B:  48.15810 [K], p_1: 3.03315 [A], shift/k_B:  -0.05022176 [K], tailcorrection: no
     Ow -      O5 [LENNARD_JONES] p_0/k_B:  48.15810 [K], p_1: 3.03315 [A], shift/k_B:  -0.05022176 [K], tailcorrection: no
     Ow -      C1 [LENNARD_JONES] p_0/k_B:  48.00691 [K], p_1: 3.25307 [A], shift/k_B:  -0.07618410 [K], tailcorrection: no
     Ow -      C2 [LENNARD_JONES] p_0/k_B:  48.00691 [K], p_1: 3.25307 [A], shift/k_B:  -0.07618410 [K], tailcorrection: no
     Ow -      C3 [LENNARD_JONES] p_0/k_B:  48.00691 [K], p_1: 3.25307 [A], shift/k_B:  -0.07618410 [K], tailcorrection: no
     Ow -      C4 [LENNARD_JONES] p_0/k_B:  48.00691 [K], p_1: 3.25307 [A], shift/k_B:  -0.07618410 [K], tailcorrection: no
     Ow -      H2 [LENNARD_JONES] p_0/k_B:  19.19265 [K], p_1: 2.93979 [A], shift/k_B:  -0.01659232 [K], tailcorrection: no
     Ow -      H3 [LENNARD_JONES] p_0/k_B:  19.19265 [K], p_1: 2.93979 [A], shift/k_B:  -0.01659232 [K], tailcorrection: no
     Ow -      H1 [LENNARD_JONES] p_0/k_B:  19.19265 [K], p_1: 2.93979 [A], shift/k_B:  -0.01659232 [K], tailcorrection: no
     Hw -      Hw [ZERO_POTENTIAL]
     Hw -      He [ZERO_POTENTIAL]
     Hw -     Al1 [ZERO_POTENTIAL]
     Hw -     Al2 [ZERO_POTENTIAL]
     Hw -      O1 [ZERO_POTENTIAL]
     Hw -      O2 [ZERO_POTENTIAL]
     Hw -      O3 [ZERO_POTENTIAL]
     Hw -      O4 [ZERO_POTENTIAL]
     Hw -      O5 [ZERO_POTENTIAL]
     Hw -      C1 [ZERO_POTENTIAL]
     Hw -      C2 [ZERO_POTENTIAL]
     Hw -      C3 [ZERO_POTENTIAL]
     Hw -      C4 [ZERO_POTENTIAL]
     Hw -      H2 [ZERO_POTENTIAL]
     Hw -      H3 [ZERO_POTENTIAL]
     Hw -      H1 [ZERO_POTENTIAL]
     He -      He [LENNARD_JONES] p_0/k_B:  10.90000 [K], p_1: 2.64000 [A], shift/k_B:  -0.00494280 [K], tailcorrection: no
     He -     Al1 [LENNARD_JONES] p_0/k_B:  41.23564 [K], p_1: 3.27553 [A], shift/k_B:  -0.06819478 [K], tailcorrection: no
     He -     Al2 [LENNARD_JONES] p_0/k_B:  41.23564 [K], p_1: 3.27553 [A], shift/k_B:  -0.06819478 [K], tailcorrection: no
     He -      O1 [LENNARD_JONES] p_0/k_B:  22.91120 [K], p_1: 2.83657 [A], shift/k_B:  -0.01598491 [K], tailcorrection: no
     He -      O2 [LENNARD_JONES] p_0/k_B:  22.91120 [K], p_1: 2.83657 [A], shift/k_B:  -0.01598491 [K], tailcorrection: no
     He -      O3 [LENNARD_JONES] p_0/k_B:  22.91120 [K], p_1: 2.83657 [A], shift/k_B:  -0.01598491 [K], tailcorrection: no
     He -      O4 [LENNARD_JONES] p_0/k_B:  22.91120 [K], p_1: 2.83657 [A], shift/k_B:  -0.01598491 [K], tailcorrection: no
     He -      O5 [LENNARD_JONES] p_0/k_B:  22.91120 [K], p_1: 2.83657 [A], shift/k_B:  -0.01598491 [K], tailcorrection: no
     He -      C1 [LENNARD_JONES] p_0/k_B:  22.83928 [K], p_1: 3.05649 [A], shift/k_B:  -0.02493896 [K], tailcorrection: no
     He -      C2 [LENNARD_JONES] p_0/k_B:  22.83928 [K], p_1: 3.05649 [A], shift/k_B:  -0.02493896 [K], tailcorrection: no
     He -      C3 [LENNARD_JONES] p_0/k_B:  22.83928 [K], p_1: 3.05649 [A], shift/k_B:  -0.02493896 [K], tailcorrection: no
     He -      C4 [LENNARD_JONES] p_0/k_B:  22.83928 [K], p_1: 3.05649 [A], shift/k_B:  -0.02493896 [K], tailcorrection: no
     He -      H2 [LENNARD_JONES] p_0/k_B:   9.13090 [K], p_1: 2.74321 [A], shift/k_B:  -0.00521169 [K], tailcorrection: no
     He -      H3 [LENNARD_JONES] p_0/k_B:   9.13090 [K], p_1: 2.74321 [A], shift/k_B:  -0.00521169 [K], tailcorrection: no
     He -      H1 [LENNARD_JONES] p_0/k_B:   9.13090 [K], p_1: 2.74321 [A], shift/k_B:  -0.00521169 [K], tailcorrection: no
    Al1 -     Al1 [LENNARD_JONES] p_0/k_B: 155.99800 [K], p_1: 3.91105 [A], shift/k_B:  -0.74701771 [K], tailcorrection: no
    Al1 -     Al2 [LENNARD_JONES] p_0/k_B: 155.99800 [K], p_1: 3.91105 [A], shift/k_B:  -0.74701771 [K], tailcorrection: no
    Al1 -      O1 [LENNARD_JONES] p_0/k_B:  86.67507 [K], p_1: 3.47210 [A], shift/k_B:  -0.20331300 [K], tailcorrection: no
    Al1 -      O2 [LENNARD_JONES] p_0/k_B:  86.67507 [K], p_1: 3.47210 [A], shift/k_B:  -0.20331300 [K], tailcorrection: no
    Al1 -      O3 [LENNARD_JONES] p_0/k_B:  86.67507 [K], p_1: 3.47210 [A], shift/k_B:  -0.20331300 [K], tailcorrection: no
    Al1 -      O4 [LENNARD_JONES] p_0/k_B:  86.67507 [K], p_1: 3.47210 [A], shift/k_B:  -0.20331300 [K], tailcorrection: no
    Al1 -      O5 [LENNARD_JONES] p_0/k_B:  86.67507 [K], p_1: 3.47210 [A], shift/k_B:  -0.20331300 [K], tailcorrection: no
    Al1 -      C1 [LENNARD_JONES] p_0/k_B:  86.40296 [K], p_1: 3.69202 [A], shift/k_B:  -0.29289832 [K], tailcorrection: no
    Al1 -      C2 [LENNARD_JONES] p_0/k_B:  86.40296 [K], p_1: 3.69202 [A], shift/k_B:  -0.29289832 [K], tailcorrection: no
    Al1 -      C3 [LENNARD_JONES] p_0/k_B:  86.40296 [K], p_1: 3.69202 [A], shift/k_B:  -0.29289832 [K], tailcorrection: no
    Al1 -      C4 [LENNARD_JONES] p_0/k_B:  86.40296 [K], p_1: 3.69202 [A], shift/k_B:  -0.29289832 [K], tailcorrection: no
    Al1 -      H2 [LENNARD_JONES] p_0/k_B:  34.54298 [K], p_1: 3.37873 [A], shift/k_B:  -0.06880828 [K], tailcorrection: no
    Al1 -      H3 [LENNARD_JONES] p_0/k_B:  34.54298 [K], p_1: 3.37873 [A], shift/k_B:  -0.06880828 [K], tailcorrection: no
    Al1 -      H1 [LENNARD_JONES] p_0/k_B:  34.54298 [K], p_1: 3.37873 [A], shift/k_B:  -0.06880828 [K], tailcorrection: no
    Al2 -     Al2 [LENNARD_JONES] p_0/k_B: 155.99800 [K], p_1: 3.91105 [A], shift/k_B:  -0.74701771 [K], tailcorrection: no
    Al2 -      O1 [LENNARD_JONES] p_0/k_B:  86.67507 [K], p_1: 3.47210 [A], shift/k_B:  -0.20331300 [K], tailcorrection: no
    Al2 -      O2 [LENNARD_JONES] p_0/k_B:  86.67507 [K], p_1: 3.47210 [A], shift/k_B:  -0.20331300 [K], tailcorrection: no
    Al2 -      O3 [LENNARD_JONES] p_0/k_B:  86.67507 [K], p_1: 3.47210 [A], shift/k_B:  -0.20331300 [K], tailcorrection: no
    Al2 -      O4 [LENNARD_JONES] p_0/k_B:  86.67507 [K], p_1: 3.47210 [A], shift/k_B:  -0.20331300 [K], tailcorrection: no
    Al2 -      O5 [LENNARD_JONES] p_0/k_B:  86.67507 [K], p_1: 3.47210 [A], shift/k_B:  -0.20331300 [K], tailcorrection: no
    Al2 -      C1 [LENNARD_JONES] p_0/k_B:  86.40296 [K], p_1: 3.69202 [A], shift/k_B:  -0.29289832 [K], tailcorrection: no
    Al2 -      C2 [LENNARD_JONES] p_0/k_B:  86.40296 [K], p_1: 3.69202 [A], shift/k_B:  -0.29289832 [K], tailcorrection: no
    Al2 -      C3 [LENNARD_JONES] p_0/k_B:  86.40296 [K], p_1: 3.69202 [A], shift/k_B:  -0.29289832 [K], tailcorrection: no
    Al2 -      C4 [LENNARD_JONES] p_0/k_B:  86.40296 [K], p_1: 3.69202 [A], shift/k_B:  -0.29289832 [K], tailcorrection: no
    Al2 -      H2 [LENNARD_JONES] p_0/k_B:  34.54298 [K], p_1: 3.37873 [A], shift/k_B:  -0.06880828 [K], tailcorrection: no
    Al2 -      H3 [LENNARD_JONES] p_0/k_B:  34.54298 [K], p_1: 3.37873 [A], shift/k_B:  -0.06880828 [K], tailcorrection: no
    Al2 -      H1 [LENNARD_JONES] p_0/k_B:  34.54298 [K], p_1: 3.37873 [A], shift/k_B:  -0.06880828 [K], tailcorrection: no
     O1 -      O1 [LENNARD_JONES] p_0/k_B:  48.15810 [K], p_1: 3.03315 [A], shift/k_B:  -0.05022176 [K], tailcorrection: no
     O1 -      O2 [LENNARD_JONES] p_0/k_B:  48.15810 [K], p_1: 3.03315 [A], shift/k_B:  -0.05022176 [K], tailcorrection: no
     O1 -      O3 [LENNARD_JONES] p_0/k_B:  48.15810 [K], p_1: 3.03315 [A], shift/k_B:  -0.05022176 [K], tailcorrection: no
     O1 -      O4 [LENNARD_JONES] p_0/k_B:  48.15810 [K], p_1: 3.03315 [A], shift/k_B:  -0.05022176 [K], tailcorrection: no
     O1 -      O5 [LENNARD_JONES] p_0/k_B:  48.15810 [K], p_1: 3.03315 [A], shift/k_B:  -0.05022176 [K], tailcorrection: no
     O1 -      C1 [LENNARD_JONES] p_0/k_B:  48.00691 [K], p_1: 3.25307 [A], shift/k_B:  -0.07618410 [K], tailcorrection: no
     O1 -      C2 [LENNARD_JONES] p_0/k_B:  48.00691 [K], p_1: 3.25307 [A], shift/k_B:  -0.07618410 [K], tailcorrection: no
     O1 -      C3 [LENNARD_JONES] p_0/k_B:  48.00691 [K], p_1: 3.25307 [A], shift/k_B:  -0.07618410 [K], tailcorrection: no
     O1 -      C4 [LENNARD_JONES] p_0/k_B:  48.00691 [K], p_1: 3.25307 [A], shift/k_B:  -0.07618410 [K], tailcorrection: no
     O1 -      H2 [LENNARD_JONES] p_0/k_B:  19.19265 [K], p_1: 2.93979 [A], shift/k_B:  -0.01659232 [K], tailcorrection: no
     O1 -      H3 [LENNARD_JONES] p_0/k_B:  19.19265 [K], p_1: 2.93979 [A], shift/k_B:  -0.01659232 [K], tailcorrection: no
     O1 -      H1 [LENNARD_JONES] p_0/k_B:  19.19265 [K], p_1: 2.93979 [A], shift/k_B:  -0.01659232 [K], tailcorrection: no
     O2 -      O2 [LENNARD_JONES] p_0/k_B:  48.15810 [K], p_1: 3.03315 [A], shift/k_B:  -0.05022176 [K], tailcorrection: no
     O2 -      O3 [LENNARD_JONES] p_0/k_B:  48.15810 [K], p_1: 3.03315 [A], shift/k_B:  -0.05022176 [K], tailcorrection: no
     O2 -      O4 [LENNARD_JONES] p_0/k_B:  48.15810 [K], p_1: 3.03315 [A], shift/k_B:  -0.05022176 [K], tailcorrection: no
     O2 -      O5 [LENNARD_JONES] p_0/k_B:  48.15810 [K], p_1: 3.03315 [A], shift/k_B:  -0.05022176 [K], tailcorrection: no
     O2 -      C1 [LENNARD_JONES] p_0/k_B:  48.00691 [K], p_1: 3.25307 [A], shift/k_B:  -0.07618410 [K], tailcorrection: no
     O2 -      C2 [LENNARD_JONES] p_0/k_B:  48.00691 [K], p_1: 3.25307 [A], shift/k_B:  -0.07618410 [K], tailcorrection: no
     O2 -      C3 [LENNARD_JONES] p_0/k_B:  48.00691 [K], p_1: 3.25307 [A], shift/k_B:  -0.07618410 [K], tailcorrection: no
     O2 -      C4 [LENNARD_JONES] p_0/k_B:  48.00691 [K], p_1: 3.25307 [A], shift/k_B:  -0.07618410 [K], tailcorrection: no
     O2 -      H2 [LENNARD_JONES] p_0/k_B:  19.19265 [K], p_1: 2.93979 [A], shift/k_B:  -0.01659232 [K], tailcorrection: no
     O2 -      H3 [LENNARD_JONES] p_0/k_B:  19.19265 [K], p_1: 2.93979 [A], shift/k_B:  -0.01659232 [K], tailcorrection: no
     O2 -      H1 [LENNARD_JONES] p_0/k_B:  19.19265 [K], p_1: 2.93979 [A], shift/k_B:  -0.01659232 [K], tailcorrection: no
     O3 -      O3 [LENNARD_JONES] p_0/k_B:  48.15810 [K], p_1: 3.03315 [A], shift/k_B:  -0.05022176 [K], tailcorrection: no
     O3 -      O4 [LENNARD_JONES] p_0/k_B:  48.15810 [K], p_1: 3.03315 [A], shift/k_B:  -0.05022176 [K], tailcorrection: no
     O3 -      O5 [LENNARD_JONES] p_0/k_B:  48.15810 [K], p_1: 3.03315 [A], shift/k_B:  -0.05022176 [K], tailcorrection: no
     O3 -      C1 [LENNARD_JONES] p_0/k_B:  48.00691 [K], p_1: 3.25307 [A], shift/k_B:  -0.07618410 [K], tailcorrection: no
     O3 -      C2 [LENNARD_JONES] p_0/k_B:  48.00691 [K], p_1: 3.25307 [A], shift/k_B:  -0.07618410 [K], tailcorrection: no
     O3 -      C3 [LENNARD_JONES] p_0/k_B:  48.00691 [K], p_1: 3.25307 [A], shift/k_B:  -0.07618410 [K], tailcorrection: no
     O3 -      C4 [LENNARD_JONES] p_0/k_B:  48.00691 [K], p_1: 3.25307 [A], shift/k_B:  -0.07618410 [K], tailcorrection: no
     O3 -      H2 [LENNARD_JONES] p_0/k_B:  19.19265 [K], p_1: 2.93979 [A], shift/k_B:  -0.01659232 [K], tailcorrection: no
     O3 -      H3 [LENNARD_JONES] p_0/k_B:  19.19265 [K], p_1: 2.93979 [A], shift/k_B:  -0.01659232 [K], tailcorrection: no
     O3 -      H1 [LENNARD_JONES] p_0/k_B:  19.19265 [K], p_1: 2.93979 [A], shift/k_B:  -0.01659232 [K], tailcorrection: no
     O4 -      O4 [LENNARD_JONES] p_0/k_B:  48.15810 [K], p_1: 3.03315 [A], shift/k_B:  -0.05022176 [K], tailcorrection: no
     O4 -      O5 [LENNARD_JONES] p_0/k_B:  48.15810 [K], p_1: 3.03315 [A], shift/k_B:  -0.05022176 [K], tailcorrection: no
     O4 -      C1 [LENNARD_JONES] p_0/k_B:  48.00691 [K], p_1: 3.25307 [A], shift/k_B:  -0.07618410 [K], tailcorrection: no
     O4 -      C2 [LENNARD_JONES] p_0/k_B:  48.00691 [K], p_1: 3.25307 [A], shift/k_B:  -0.07618410 [K], tailcorrection: no
     O4 -      C3 [LENNARD_JONES] p_0/k_B:  48.00691 [K], p_1: 3.25307 [A], shift/k_B:  -0.07618410 [K], tailcorrection: no
     O4 -      C4 [LENNARD_JONES] p_0/k_B:  48.00691 [K], p_1: 3.25307 [A], shift/k_B:  -0.07618410 [K], tailcorrection: no
     O4 -      H2 [LENNARD_JONES] p_0/k_B:  19.19265 [K], p_1: 2.93979 [A], shift/k_B:  -0.01659232 [K], tailcorrection: no
     O4 -      H3 [LENNARD_JONES] p_0/k_B:  19.19265 [K], p_1: 2.93979 [A], shift/k_B:  -0.01659232 [K], tailcorrection: no
     O4 -      H1 [LENNARD_JONES] p_0/k_B:  19.19265 [K], p_1: 2.93979 [A], shift/k_B:  -0.01659232 [K], tailcorrection: no
     O5 -      O5 [LENNARD_JONES] p_0/k_B:  48.15810 [K], p_1: 3.03315 [A], shift/k_B:  -0.05022176 [K], tailcorrection: no
     O5 -      C1 [LENNARD_JONES] p_0/k_B:  48.00691 [K], p_1: 3.25307 [A], shift/k_B:  -0.07618410 [K], tailcorrection: no
     O5 -      C2 [LENNARD_JONES] p_0/k_B:  48.00691 [K], p_1: 3.25307 [A], shift/k_B:  -0.07618410 [K], tailcorrection: no
     O5 -      C3 [LENNARD_JONES] p_0/k_B:  48.00691 [K], p_1: 3.25307 [A], shift/k_B:  -0.07618410 [K], tailcorrection: no
     O5 -      C4 [LENNARD_JONES] p_0/k_B:  48.00691 [K], p_1: 3.25307 [A], shift/k_B:  -0.07618410 [K], tailcorrection: no
     O5 -      H2 [LENNARD_JONES] p_0/k_B:  19.19265 [K], p_1: 2.93979 [A], shift/k_B:  -0.01659232 [K], tailcorrection: no
     O5 -      H3 [LENNARD_JONES] p_0/k_B:  19.19265 [K], p_1: 2.93979 [A], shift/k_B:  -0.01659232 [K], tailcorrection: no
     O5 -      H1 [LENNARD_JONES] p_0/k_B:  19.19265 [K], p_1: 2.93979 [A], shift/k_B:  -0.01659232 [K], tailcorrection: no
     C1 -      C1 [LENNARD_JONES] p_0/k_B:  47.85620 [K], p_1: 3.47299 [A], shift/k_B:  -0.11242855 [K], tailcorrection: no
     C1 -      C2 [LENNARD_JONES] p_0/k_B:  47.85620 [K], p_1: 3.47299 [A], shift/k_B:  -0.11242855 [K], tailcorrection: no
     C1 -      C3 [LENNARD_JONES] p_0/k_B:  47.85620 [K], p_1: 3.47299 [A], shift/k_B:  -0.11242855 [K], tailcorrection: no
     C1 -      C4 [LENNARD_JONES] p_0/k_B:  47.85620 [K], p_1: 3.47299 [A], shift/k_B:  -0.11242855 [K], tailcorrection: no
     C1 -      H2 [LENNARD_JONES] p_0/k_B:  19.13240 [K], p_1: 3.15970 [A], shift/k_B:  -0.02549626 [K], tailcorrection: no
     C1 -      H3 [LENNARD_JONES] p_0/k_B:  19.13240 [K], p_1: 3.15970 [A], shift/k_B:  -0.02549626 [K], tailcorrection: no
     C1 -      H1 [LENNARD_JONES] p_0/k_B:  19.13240 [K], p_1: 3.15970 [A], shift/k_B:  -0.02549626 [K], tailcorrection: no
     C2 -      C2 [LENNARD_JONES] p_0/k_B:  47.85620 [K], p_1: 3.47299 [A], shift/k_B:  -0.11242855 [K], tailcorrection: no
     C2 -      C3 [LENNARD_JONES] p_0/k_B:  47.85620 [K], p_1: 3.47299 [A], shift/k_B:  -0.11242855 [K], tailcorrection: no
     C2 -      C4 [LENNARD_JONES] p_0/k_B:  47.85620 [K], p_1: 3.47299 [A], shift/k_B:  -0.11242855 [K], tailcorrection: no
     C2 -      H2 [LENNARD_JONES] p_0/k_B:  19.13240 [K], p_1: 3.15970 [A], shift/k_B:  -0.02549626 [K], tailcorrection: no
     C2 -      H3 [LENNARD_JONES] p_0/k_B:  19.13240 [K], p_1: 3.15970 [A], shift/k_B:  -0.02549626 [K], tailcorrection: no
     C2 -      H1 [LENNARD_JONES] p_0/k_B:  19.13240 [K], p_1: 3.15970 [A], shift/k_B:  -0.02549626 [K], tailcorrection: no
     C3 -      C3 [LENNARD_JONES] p_0/k_B:  47.85620 [K], p_1: 3.47299 [A], shift/k_B:  -0.11242855 [K], tailcorrection: no
     C3 -      C4 [LENNARD_JONES] p_0/k_B:  47.85620 [K], p_1: 3.47299 [A], shift/k_B:  -0.11242855 [K], tailcorrection: no
     C3 -      H2 [LENNARD_JONES] p_0/k_B:  19.13240 [K], p_1: 3.15970 [A], shift/k_B:  -0.02549626 [K], tailcorrection: no
     C3 -      H3 [LENNARD_JONES] p_0/k_B:  19.13240 [K], p_1: 3.15970 [A], shift/k_B:  -0.02549626 [K], tailcorrection: no
     C3 -      H1 [LENNARD_JONES] p_0/k_B:  19.13240 [K], p_1: 3.15970 [A], shift/k_B:  -0.02549626 [K], tailcorrection: no
     C4 -      C4 [LENNARD_JONES] p_0/k_B:  47.85620 [K], p_1: 3.47299 [A], shift/k_B:  -0.11242855 [K], tailcorrection: no
     C4 -      H2 [LENNARD_JONES] p_0/k_B:  19.13240 [K], p_1: 3.15970 [A], shift/k_B:  -0.02549626 [K], tailcorrection: no
     C4 -      H3 [LENNARD_JONES] p_0/k_B:  19.13240 [K], p_1: 3.15970 [A], shift/k_B:  -0.02549626 [K], tailcorrection: no
     C4 -      H1 [LENNARD_JONES] p_0/k_B:  19.13240 [K], p_1: 3.15970 [A], shift/k_B:  -0.02549626 [K], tailcorrection: no
     H2 -      H2 [LENNARD_JONES] p_0/k_B:   7.64893 [K], p_1: 2.84642 [A], shift/k_B:  -0.00544866 [K], tailcorrection: no
     H2 -      H3 [LENNARD_JONES] p_0/k_B:   7.64893 [K], p_1: 2.84642 [A], shift/k_B:  -0.00544866 [K], tailcorrection: no
     H2 -      H1 [LENNARD_JONES] p_0/k_B:   7.64893 [K], p_1: 2.84642 [A], shift/k_B:  -0.00544866 [K], tailcorrection: no
     H3 -      H3 [LENNARD_JONES] p_0/k_B:   7.64893 [K], p_1: 2.84642 [A], shift/k_B:  -0.00544866 [K], tailcorrection: no
     H3 -      H1 [LENNARD_JONES] p_0/k_B:   7.64893 [K], p_1: 2.84642 [A], shift/k_B:  -0.00544866 [K], tailcorrection: no
     H1 -      H1 [LENNARD_JONES] p_0/k_B:   7.64893 [K], p_1: 2.84642 [A], shift/k_B:  -0.00544866 [K], tailcorrection: no


MoleculeDefinitions:
===========================================================================
Component 0 [H2O] (Adsorbate molecule)

	MoleculeDefinitions: local
	Component contains (at least some) atoms which are charged
	Component contains no atoms with point dipoles (polarization)
	Component has a net charge of 0.723000

	Ideal chain Rosenbluth weight: 1
	Ideal chain total energy: 0.000000

	Critical temparure [K]: 647.096000
	Critical pressure [Pa]: 22064000.000000
	Acentric factor [-]: 0.344000

	RXMC partition factor ln(q/V) [ln(A^(-3))]:       0.0000000000

	Vapour=stable, Liquid=metastable

	MolFraction:           1.0000000000 [-]
	Compressibility:       0.0000000000 [-]

	Density of the bulk fluid phase:       0.0000000000 [kg/m^3]


	Amount of excess molecules:       0.0000000000 [-]

	Conversion factor molecules/unit cell -> mol/kg:       1.5818246664 [-]
	Conversion factor molecules/unit cell -> mg/g:      28.4744258196 [-]
	Conversion factor molecules/unit cell -> cm^3 STP/gr:      35.4549797093 [-]
	Conversion factor molecules/unit cell -> cm^3 STP/cm^3:      37.5788168970 [-]
	Conversion factor mol/kg -> cm^3 STP/gr:      22.4139757476 [-]
	Conversion factor mol/kg -> cm^3 STP/cm^3:      23.7566259368 [-]

	Partial pressure: -16605402.00000000000000 [Pa]
	                    -124540.51499999999942 [Torr]
	                       -166.05402000000001 [bar]
	                       -163.88257586972614 [atm]

	Fugacity coefficient:      -1.0000000000 [-]

	Partial fugacity:  16605402.00000000000000 [Pa]
	                     124540.51499999999942 [Torr]
	                        166.05402000000001 [bar]
	                        163.88257586972614 [atm]

	Molecule contains 3 number of atoms
		atom:    0  is of type:    9 [        Hw] (group: 0)
		atom:    1  is of type:    8 [        Ow] (group: 0)
		atom:    2  is of type:    9 [        Hw] (group: 0)

	Molecule contains 0 chirality centers

	Molecule contains 1 number of groups

		group: 0 containing: 3 elements
		-------------------------------------------------
		the group is rigid and nonlinear
		Mass: 18.001000 [a.u.]
		Mass: 15.090061 [kg/m^3]

		Rotational Degrees of freedom: 3
		Diagonalized inertia vector:       1.7552389368
		                                   1.1464088740
		                                   0.6088300629
		number of atoms: 3
			element: 0 atom: 0 [        Hw] Charge:  0.482000 Anisotropy: 0.000000 Position:  0.000000 -0.519952 -0.756800 Connectivity: 1 (1 )
			element: 1 atom: 1 [        Ow] Charge: -0.241000 Anisotropy: 0.000000 Position:  0.000000  0.065048  0.000000 Connectivity: 2 (0 2 )
			element: 2 atom: 2 [        Hw] Charge:  0.482000 Anisotropy: 0.000000 Position:  0.000000 -0.519952  0.756800 Connectivity: 1 (1 )
		number of permanent dipoles: 0
		number of polarizabilities: 0

		Dipole:           0.6771801106 [D]
		Quadrupole:      -1.9494408616      -0.0790912218       2.0285320834 [D Angstrom]
		Quadrupole tensor [D Angstrom]
				      -1.9494408616       0.0000000000       0.0000000000
				       0.0000000000      -0.0790912218       0.0000000000
				       0.0000000000       0.0000000000       2.0285320834

	Starting bead for growth               : 0

	Degrees of freedom                     : 0
	Translational degrees of freedom       : 0
	Rotational degrees of freedom          : 0
	Vibrational degrees of freedom         : 0
	Constraint degrees of freedom          : 0

	Number of atoms                        : 3

	Number of constraint bonds             : 0
	Number of constraint bends             : 0
	Number of constraint inversion bends   : 0
	Number of constraint torsions          : 0
	Number of constraint improper torsions : 0
	Number of constraint improper torsions : 0

	Number of bonds                        : 2
	Number of Urey-Bradleys                : 0
	Number of bends                        : 0
	Number of inversion bends              : 0
	Number of torsions                     : 0
	Number of improper torsions            : 0
	Number of improper torsions            : 0

	Number of bond/bond cross terms        : 0
	Number of bond/bend cross terms        : 0
	Number of bend/bend cross terms        : 0
	Number of stretch/torsion cross terms  : 0
	Number of bend/torsion cross terms     : 0

	Number of charges                      : 3
	Number of bond-dipoles                 : 0

	Number of intra Van der Waals                             : 0
	Number of intra charge-charge Coulomb                     : 0
	Number of intra charge-bonddipole Coulomb                 : 0
	Number of intra bonddipole-bonddipole Coulomb             : 0

	Number of excluded intra charge-charge Coulomb                     : 3
	Number of excluded intra charge-bonddipole Coulomb                 : 0
	Number of excluded intra bonddipole-bonddipole Coulomb             : 0

	Number of cbmc-config moves                               : 0

	Particle Moves:             
		ProbabilityTranslationMove:                  0.000000
			TranslationDirection:      XYZ
		Percentage of random translation moves:            0.000000
		Percentage of rotation moves:                      0.000000
		Percentage of random rotation moves:               0.000000
		Percentage of partial reinsertion moves:           0.000000
		Percentage of reinsertion moves:                   0.000000
		Percentage of reinsertion-in-place moves:          0.000000
		Percentage of reinsertion-in-plane moves:          0.000000
		Percentage of identity-change moves:               0.000000
		Percentage of swap (insert/delete) moves:          0.000000
		Percentage of CF swap lambda moves:                0.000000
		Percentage of CB/CFMC swap lambda moves:           0.000000
		Percentage of Widom insertion moves:               100.000000
		Percentage of CF-Widom insertion moves:            0.000000
		Percentage of Gibbs Widom insertion moves:         0.000000
		Percentage of surface-area moves:                  0.000000
		Percentage of Gibbs particle-transfer moves:       0.000000
		Percentage of Gibbs identity-change moves:         0.000000
		Percentage of CF Gibbs lambda-transfer moves:      0.000000
		Percentage of CB/CFMC Gibbs lambda-transfer moves: 0.000000
		Percentage of exchange frac./int. particle moves:  0.000000
		Percentage of fractional mol. to other box moves:  0.000000
		Percentage of lambda-change moves:                 0.000000
		Percentage of fractional to integer moves:         0.000000

	System Moves:
		Percentage of parallel-tempering moves:            0.000000
		Percentage of hyper-parallel-tempering moves:      0.000000
		Percentage of parallel-mol-fraction moves:         0.000000
			   Component A: 0 B: 1
		Percentage of chiral inversion moves:              0.000000
		Percentage of Hybrid-NVE moves:                    0.000000
		Percentage of Hybrid-NPH moves:                    0.000000
		Percentage of Hybrid-NPHPR moves:                  0.000000
		Percentage of volume-change moves:                 0.000000
		Percentage of box-shape-change moves:              0.000000
		Percentage of Gibbs volume-change moves:           0.000000
		Percentage of framework-change moves:              0.000000
		Percentage of framework-shift moves:               0.000000
		Percentage of reactive MC moves:                   0.000000

	Moves are restricted: No
	No biased sampling used for this component

	Number of Bonds: 2
	--------------------------------------------
	Bond interaction 0: A=0 B=1 Type:RIGID_BOND
		r_0=0.9565412903       [A]
	Bond interaction 1: A=1 B=2 Type:RIGID_BOND
		r_0=0.9565412903       [A]


	number of identity-config changes: 1
	--------------------------------------------
	nr fixed 1: 0 

	Number of pockets blocked in a unitcell: 0
		Pockets are NOT blocked for this component



Framework Status
===========================================================================
Lowenstein's rule obeyed by framework
	Framework is modelled as: rigid

	Number of charges:                               0
	Number of bonddipoles:                           0


System Properties
===========================================================================
Unit cell size: 6.841900 12.087700 14.207000
Cell angles (radians)  alpha: 1.570796 beta: 2.138849 gamma: 1.570796
Cell angles (degrees)  alpha: 90.000000 beta: 122.547000 gamma: 90.000000
Number of unitcells [a]: 1
Number of unitcells [b]: 1
Number of unitcells [c]: 2

TRICLINIC Boundary conditions: alpha!=90 or beta!=90 or gamma!=90

Cartesian axis A is collinear with crystallographic axis a
Cartesian axis B is collinear with (axb)xA
Cartesian axis C is collinear with (axb)

lengths of cell vectors:
  6.84190  12.08770  28.41400
cosines of cell angles:
  0.00000  -0.53799   0.00000
perpendicular cell widths:
  5.76738  12.08770  23.95159
volume of the cell:  1980.864637152886 (A^3)

Orthogonalization matrix Box
Transforms fractional coordinates abc into orthonormal Cartesian coordinates xyz
Deorthogonalization matrix InverseBox
Transforms orthonormal Cartesian coordinates xyz into fractional coordinates xyz

Box[0]:
	    6.841900000000     0.000000000000   -15.286483817991
	    0.000000000000    12.087700000000     0.000000000000
	    0.000000000000     0.000000000000    23.951593025982

Inverse box[0]:
	    0.146158230901    -0.000000000000     0.093281704858
	    0.000000000000     0.082728724240    -0.000000000000
	    0.000000000000     0.000000000000     0.041750876400


Unitcell box[0]:
	    6.841900000000     0.000000000000    -7.643241908996
	    0.000000000000    12.087700000000     0.000000000000
	    0.000000000000     0.000000000000    11.975796512991

Unitcell inverse box[0]:
	    0.146158230901    -0.000000000000     0.093281704858
	    0.000000000000     0.082728724240    -0.000000000000
	    0.000000000000     0.000000000000     0.083501752799

lengths of cell vectors (inverse box):
  0.14616   0.08273   0.10220
cosines of cell angles (inverse box):
 -0.00000   0.91275  -0.00000
perpendicular cell widths (inverse):
  0.05971   0.08273   0.04175
volume of the cell:  1980.864637152886 (A^3)

No replicas are used
Framework is simulated as 'rigid'
Number of framework atoms: 104
Number of framework atoms in the unit cell: 52
Framework Mass:  1264.362632915181 [g/mol]
Framework Density:  1059.902366468457 [kg/m^3]    0.9434831279148 [cm^3/g]
Helium void fraction:    0.56300000
Available pore volume: 1115.22679072 [A^3]    0.53118100 [cm^3/g]
Conversion factor from molecule/unit cell -> kmol/m^3: 0.83829, kmol/m^3 accesible pore volume: 1.48897

Number Of Frameworks (per system): 1
----------------------------------------------------------------------
Framework name: Al-Fum
Citation:
	ID:                 1
	year:               10.1002/anie.201410459
Space group: 14
	Identifier: 81
	short international Hermann-Mauguin symbol: P 1 21/c 1
	long international Hermann-Mauguin symbol: P 1 21/c 1
	Hall symbol: -P 2ybc
	Number of lattice translations: 1 [ (0,0,0) ]
	acentric/centric: acentric
	chiral: yes
	enantiomorphic: no
	number of operators: 4
		'x,y,z'
		'-x,y+1/2,-z+1/2'
		'-x,-y,-z'
		'x,-y+1/2,z+1/2'
Framework is simulated as 'rigid'
Shift: 0.000000 0.000000 0.000000
Number of framework atoms: 104
Number of asymmetric atoms: 14
Number of free framework atoms: 0
Number of fixed framework atoms: 104
Number of framework atoms in the unit cell: 52
Framework Mass:  1264.362632915181 [g/mol]
Framework Density:  1059.902366468457 [kg/m^3]
Framework has net charge: 0.000000
         largest charge : 5.872498
         smallest charge: -2.214192

Using FULL Host-guest interaction calculation (for testing purposes)

Current Atom Status
===========================================================================
Number of framework atoms        : 104
Number of cations molecules      : 0
Number of adsorbate molecules    : 0
Component    0 :    0 molecules
Pseudo Atoms    0 [    UNIT]:    0 atoms
Pseudo Atoms    1 [     CF3]:    0 atoms
Pseudo Atoms    2 [     CF2]:    0 atoms
Pseudo Atoms    3 [    CF21]:    0 atoms
Pseudo Atoms    4 [      Co]:    0 atoms
Pseudo Atoms    5 [      Oc]:    0 atoms
Pseudo Atoms    6 [      Oh]:    0 atoms
Pseudo Atoms    7 [      Ho]:    0 atoms
Pseudo Atoms    8 [      Ow]:    0 atoms
Pseudo Atoms    9 [      Hw]:    0 atoms
Pseudo Atoms   10 [      He]:    0 atoms
Pseudo Atoms   11 [     Al1]:    4 atoms
Pseudo Atoms   12 [     Al2]:    4 atoms
Pseudo Atoms   13 [      O1]:    8 atoms
Pseudo Atoms   14 [      O2]:    8 atoms
Pseudo Atoms   15 [      O3]:    8 atoms
Pseudo Atoms   16 [      O4]:    8 atoms
Pseudo Atoms   17 [      O5]:    8 atoms
Pseudo Atoms   18 [      C1]:    8 atoms
Pseudo Atoms   19 [      C2]:    8 atoms
Pseudo Atoms   20 [      C3]:    8 atoms
Pseudo Atoms   21 [      C4]:    8 atoms
Pseudo Atoms   22 [      H2]:    8 atoms
Pseudo Atoms   23 [      H3]:    8 atoms
Pseudo Atoms   24 [      H1]:    8 atoms


Current (initial full energy) Energy Status
===========================================================================

Internal energy:
Host stretch energy:                                            0.00000000
Host UreyBradley energy:                                        0.00000000
Host bend energy:                                               0.00000000
Host inversion-bend energy:                                     0.00000000
Host torsion energy:                                            0.00000000
Host improper torsion energy:                                   0.00000000
Host out-of-plane energy:                                       0.00000000
Host stretch/stretch energy:                                    0.00000000
Host bend/bend energy:                                          0.00000000
Host stretch/bend energy:                                       0.00000000
Host stretch/torsion energy:                                    0.00000000
Host bend/torsion energy:                                       0.00000000

Adsorbate stretch energy:                                       0.00000000
Adsorbate UreyBradley energy:                                   0.00000000
Adsorbate bend energy:                                          0.00000000
Adsorbate inversion-bend energy:                                0.00000000
Adsorbate torsion energy:                                       0.00000000
Adsorbate improper torsion energy:                              0.00000000
Adsorbate out-of-plane energy:                                  0.00000000
Adsorbate stretch/stretch energy:                               0.00000000
Adsorbate bend/bend energy:                                     0.00000000
Adsorbate stretch/bend energy:                                  0.00000000
Adsorbate stretch/torsion energy:                               0.00000000
Adsorbate bend/torsion energy:                                  0.00000000
Adsorbate intra VDW energy:                                     0.00000000
Adsorbate intra charge-charge Coulomb energy:                   0.00000000
Adsorbate intra charge-bonddipole Coulomb energy:               0.00000000
Adsorbate intra bonddipole-bonddipole Coulomb energy:           0.00000000

Cation stretch energy:                                          0.00000000
Cation UreyBradley energy:                                      0.00000000
Cation bend energy:                                             0.00000000
Cation inversion-bend energy:                                   0.00000000
Cation torsion energy:                                          0.00000000
Cation improper torsion energy:                                 0.00000000
Cation out-of-plane energy:                                     0.00000000
Cation stretch/stretch energy:                                  0.00000000
Cation bend/bend energy:                                        0.00000000
Cation stretch/bend energy:                                     0.00000000
Cation stretch/torsion energy:                                  0.00000000
Cation bend/torsion energy:                                     0.00000000
Cation intra VDW energy:                                        0.00000000
Cation intra charge-charge Coulomb energy:                      0.00000000
Cation intra charge-bonddipole Coulomb energy:                  0.00000000
Cation intra bonddipole-bonddipole Coulomb energy:              0.00000000

Host/Host energy:                                             0.00000000
	Host/Host VDW energy:                                         0.00000000
	Host/Host Coulomb energy:                                     0.00000000
	Host/Host charge-charge Real energy:                          0.00000000
	Host/Host charge-charge Fourier energy:                       0.00000000
	Host/Host charge-bonddipole Real energy:                      0.00000000
	Host/Host charge-bonddipole Fourier energy:                   0.00000000
	Host/Host bondipole-bonddipole Real energy:                   0.00000000
	Host/Host bondipole-bonddipole Fourier energy:                0.00000000

Host/Adsorbate energy:                                        0.00000000
	Host/Adsorbate VDW energy:                                    0.00000000
	Host/Adsorbate Coulomb energy:                                0.00000000
	Host/Adsorbate charge-charge Real energy:                     0.00000000
	Host/Adsorbate charge-charge Fourier energy:                  0.00000000
	Host/Adsorbate charge-bonddipole Real energy:                 0.00000000
	Host/Adsorbate charge-bonddipole Fourier energy:              0.00000000
	Host/Adsorbate bondipole-bonddipole Real energy:              0.00000000
	Host/Adsorbate bondipole-bonddipole Fourier energy:           0.00000000

Host/Cation energy:                                           0.00000000
	Host/Cation VDW energy:                                       0.00000000
	Host/Cation Coulomb energy:                                   0.00000000
	Host/Cation charge-charge Real energy:                        0.00000000
	Host/Cation charge-charge Fourier energy:                     0.00000000
	Host/Cation charge-bonddipole Real energy:                    0.00000000
	Host/Cation charge-bonddipole Fourier energy:                 0.00000000
	Host/Cation bondipole-bonddipole Real energy:                 0.00000000
	Host/Cation bondipole-bonddipole Fourier energy:              0.00000000

Adsorbate/Adsorbate energy:                                        0.00000000
	Adsorbate/Adsorbate VDW energy:                                    0.00000000
	Adsorbate/Adsorbate Coulomb energy:                                0.00000000
	Adsorbate/Adsorbate charge-charge Real energy:                     0.00000000
	Adsorbate/Adsorbate charge-charge Fourier energy:                  0.00000000
	Adsorbate/Adsorbate charge-bonddipole Real energy:                 0.00000000
	Adsorbate/Adsorbate charge-bonddipole Fourier energy:              0.00000000
	Adsorbate/Adsorbate bondipole-bonddipole Real energy:              0.00000000
	Adsorbate/Adsorbate bondipole-bonddipole Fourier energy:           0.00000000

Adsorbate/Cation energy:                                           0.00000000
	Adsorbate/Cation VDW energy:                                       0.00000000
	Adsorbate/Cation Coulomb energy:                                   0.00000000
	Adsorbate/Cation charge-charge Real energy:                        0.00000000
	Adsorbate/Cation charge-charge Fourier energy:                     0.00000000
	Adsorbate/Cation charge-bonddipole Real energy:                    0.00000000
	Adsorbate/Cation charge-bonddipole Fourier energy:                 0.00000000
	Adsorbate/Cation bondipole-bonddipole Real energy:                 0.00000000
	Adsorbate/Cation bondipole-bonddipole Fourier energy:              0.00000000

Cation/Cation energy:                                           0.00000000
	Cation/Cation VDW energy:                                       0.00000000
	Cation/Cation Coulomb energy:                                   0.00000000
	Cation/Cation charge-charge Real energy:                        0.00000000
	Cation/Cation charge-charge Fourier energy:                     0.00000000
	Cation/Cation charge-bonddipole Real energy:                    0.00000000
	Cation/Cation charge-bonddipole Fourier energy:                 0.00000000
	Cation/Cation bondipole-bonddipole Real energy:                 0.00000000
	Cation/Cation bondipole-bonddipole Fourier energy:              0.00000000

Polarization energy:
	Host polarization energy:                                     0.00000000
	Adsorbate polarization energy:                                0.00000000
	Cation polarization energy:                                   0.00000000
	Host back-polarization energy:                                     0.00000000
	Adsorbate back-polarization energy:                                0.00000000
	Cation back-polarization energy:                                   0.00000000

Tail-correction energy:                                       0.00000000

Distance constraints energy:                                  0.00000000
Angle constraints energy:                                     0.00000000
Dihedral constraints energy:                                  0.00000000
Inversion-bend constraints energy:                            0.00000000
Out-of-plane distance constraints energy:                     0.00000000
Exclusion constraints energy:                                 0.00000000

===================================================================
Total energy:     0.000000000000
	Total Van der Waals: 0.000000
	Total Coulomb: 0.000000

	Total Polarization: 0.000000







+++++++++++++++++++++++++++++++++++++++++++++++++++++++++++++++++++++++++
Starting simulation
+++++++++++++++++++++++++++++++++++++++++++++++++++++++++++++++++++++++++

Average Properties at Current cycle: 0 out of 1000
========================================================================================

Framework surface area:       0.0000000000 [m^2/g]        0.0000000000 [m^2/cm^3]       0.0000000000 [A^2]
	Framework 0 individual surface area:       0.0000000000 [m^2/g]        0.0000000000 [m^2/cm^3]       0.0000000000 [A^2]
	Cation surface area:                       0.0000000000 [m^2/g]        0.0000000000 [m^2/cm^3]       0.0000000000 [A^2]
Compressibility:               -nan [-]
Henry coefficients
	Component 0: 0 [mol/kg/Pa] (Rosenbluth factor new: 0 [-])
Energy <U_gh>_1-<U_h>_0 from Widom
	Component 0:       0.0000000000 [K]  (      0.0000000000 [kJ/mol])
Component [H2O] average Widom:       0.0000000000, average chemical potential:                inf [K]
		(average excess chemical potential:                inf [K], ideal-gas contribution:                inf [K])


Current cycle: 0 out of 1000
========================================================================================================

Net charge: 6.4504e-14 (F: 6.4504e-14, A: 0, C: 0)
Current Box:   6.84190   0.00000 -15.28648 [A]   Average Box:   6.84190   0.00000 -15.28648 [A]
               0.00000  12.08770   0.00000 [A]                  0.00000  12.08770   0.00000 [A]
               0.00000   0.00000  23.95159 [A]                  0.00000   0.00000  23.95159 [A]
Box-lengths:    6.84190  12.08770  28.41400 [A] Average:   6.84190  12.08770  28.41400 [A]
Box-angles:   90.00000 122.54700  90.00000 [degrees] Average:  90.00000 122.54700  90.00000 [degrees]
Volume: 1980.86464 [A^3] Average Volume: 1980.86464 [A^3]

Loadings per component:
----------------------------------------------------------------------------------------------------------------------------------------------------
Component 0 (H2O), current number of integer/fractional/reaction molecules: 0/0/0 (avg.   0.00000), density:   0.00000 (avg.   0.00000) [kg/m^3]
	absolute adsorption:   0.00000 (avg.   0.00000) [mol/uc],   0.0000000000 (avg.   0.0000000000) [mol/kg],   0.0000000000 (avg.   0.0000000000) [mg/g]
	                       0.0000000000 (avg.   0.0000000000) [cm^3 STP/g],    0.0000000000 (avg.   0.0000000000) [cm^3 STP/cm^3]
	excess adsorption:     0.0000000000 (avg.   0.0000000000) [mol/uc],   0.0000000000 (avg.   0.0000000000) [mol/kg],   0.0000000000 (avg.   0.0000000000) [mg/g]
	                       0.0000000000 (avg.   0.0000000000) [cm^3 STP/g],    0.0000000000 (avg.   0.0000000000) [cm^3 STP/cm^3]
----------------------------------------------------------------------------------------------------------------------------------------------------
Degrees of freedom: 0 0 0 0
Number of Framework-atoms:    104
Number of Adsorbates:           0 (0 integer, 0 fractional, 0 reaction)
Number of Cations:              0 (0 integer, 0 fractional, 0 reaction)

Current total potential energy:                 0.0000000000 [K]  (avg.           0.0000000000)
	Current Host-Host energy:                     0.0000000000 [K]  (avg.           0.0000000000)
	Current Host-Adsorbate energy:                0.0000000000 [K]  (avg.           0.0000000000)
	Current Host-Cation energy:                   0.0000000000 [K]  (avg.           0.0000000000)
	Current Adsorbate-Adsorbate energy:           0.0000000000 [K]  (avg.           0.0000000000)
	Current Cation-Cation energy:                 0.0000000000 [K]  (avg.           0.0000000000)
	Current Adsorbate-Cation energy:              0.0000000000 [K]  (avg.           0.0000000000)

WARNING: INAPPROPRIATE NUMBER OF UNIT CELLS USED


Current cycle: 100 out of 1000
========================================================================================================

Net charge: 6.4504e-14 (F: 6.4504e-14, A: 0, C: 0)
Current Box:   6.84190   0.00000 -15.28648 [A]   Average Box:   6.84190   0.00000 -15.28648 [A]
               0.00000  12.08770   0.00000 [A]                  0.00000  12.08770   0.00000 [A]
               0.00000   0.00000  23.95159 [A]                  0.00000   0.00000  23.95159 [A]
Box-lengths:    6.84190  12.08770  28.41400 [A] Average:   6.84190  12.08770  28.41400 [A]
Box-angles:   90.00000 122.54700  90.00000 [degrees] Average:  90.00000 122.54700  90.00000 [degrees]
Volume: 1980.86464 [A^3] Average Volume: 1980.86464 [A^3]

Loadings per component:
----------------------------------------------------------------------------------------------------------------------------------------------------
Component 0 (H2O), current number of integer/fractional/reaction molecules: 0/0/0 (avg.   0.00000), density:   0.00000 (avg.   0.00000) [kg/m^3]
	absolute adsorption:   0.00000 (avg.   0.00000) [mol/uc],   0.0000000000 (avg.   0.0000000000) [mol/kg],   0.0000000000 (avg.   0.0000000000) [mg/g]
	                       0.0000000000 (avg.   0.0000000000) [cm^3 STP/g],    0.0000000000 (avg.   0.0000000000) [cm^3 STP/cm^3]
[...]
	Block[ 3]            0.00000 [K]
	Block[ 4]            0.00000 [K]
	------------------------------------------------------------------------------
	Average              0.00000 [K] +/-            0.00000 [K]

Average Cation Bond-Bond cross term energy:
=================================================
	Block[ 0]            0.00000 [K]
	Block[ 1]            0.00000 [K]
	Block[ 2]            0.00000 [K]
	Block[ 3]            0.00000 [K]
	Block[ 4]            0.00000 [K]
	------------------------------------------------------------------------------
	Average              0.00000 [K] +/-            0.00000 [K]

Average Cation Bend-Bend cross term energy:
===========================================
	Block[ 0]            0.00000 [K]
	Block[ 1]            0.00000 [K]
	Block[ 2]            0.00000 [K]
	Block[ 3]            0.00000 [K]
	Block[ 4]            0.00000 [K]
	------------------------------------------------------------------------------
	Average              0.00000 [K] +/-            0.00000 [K]

Average Cation Bond-Bend cross term energy:
==============================================
	Block[ 0]            0.00000 [K]
	Block[ 1]            0.00000 [K]
	Block[ 2]            0.00000 [K]
	Block[ 3]            0.00000 [K]
	Block[ 4]            0.00000 [K]
	------------------------------------------------------------------------------
	Average              0.00000 [K] +/-            0.00000 [K]

Average Cation Bond-Torsion cross term energy:
==============================================
	Block[ 0]            0.00000 [K]
	Block[ 1]            0.00000 [K]
	Block[ 2]            0.00000 [K]
	Block[ 3]            0.00000 [K]
	Block[ 4]            0.00000 [K]
	------------------------------------------------------------------------------
	Average              0.00000 [K] +/-            0.00000 [K]

Average Cation Bend-Torsion cross term energy:
==============================================
	Block[ 0]            0.00000 [K]
	Block[ 1]            0.00000 [K]
	Block[ 2]            0.00000 [K]
	Block[ 3]            0.00000 [K]
	Block[ 4]            0.00000 [K]
	------------------------------------------------------------------------------
	Average              0.00000 [K] +/-            0.00000 [K]

Average Cation Intra Van der Waals energy:
==========================================
	Block[ 0]            0.00000 [K]
	Block[ 1]            0.00000 [K]
	Block[ 2]            0.00000 [K]
	Block[ 3]            0.00000 [K]
	Block[ 4]            0.00000 [K]
	------------------------------------------------------------------------------
	Average              0.00000 [K] +/-            0.00000 [K]

Average Cation Intra charge-charge Coulomb energy:
====================================
	Block[ 0]            0.00000 [K]
	Block[ 1]            0.00000 [K]
	Block[ 2]            0.00000 [K]
	Block[ 3]            0.00000 [K]
	Block[ 4]            0.00000 [K]
	------------------------------------------------------------------------------
	Average              0.00000 [K] +/-            0.00000 [K]

Average Cation Intra charge-bonddipole Coulomb energy:
====================================
	Block[ 0]            0.00000 [K]
	Block[ 1]            0.00000 [K]
	Block[ 2]            0.00000 [K]
	Block[ 3]            0.00000 [K]
	Block[ 4]            0.00000 [K]
	------------------------------------------------------------------------------
	Average              0.00000 [K] +/-            0.00000 [K]

Average Cation Intra bonddipole-bonddipole Coulomb energy:
====================================
	Block[ 0]            0.00000 [K]
	Block[ 1]            0.00000 [K]
	Block[ 2]            0.00000 [K]
	Block[ 3]            0.00000 [K]
	Block[ 4]            0.00000 [K]
	------------------------------------------------------------------------------
	Average              0.00000 [K] +/-            0.00000 [K]

Average Host-Host energy:
=========================
	Block[ 0] 0.00000            Van der Waals: 0.00000            Coulomb: 0.00000            [K]
	Block[ 1] 0.00000            Van der Waals: 0.00000            Coulomb: 0.00000            [K]
	Block[ 2] 0.00000            Van der Waals: 0.00000            Coulomb: 0.00000            [K]
	Block[ 3] 0.00000            Van der Waals: 0.00000            Coulomb: 0.00000            [K]
	Block[ 4] 0.00000            Van der Waals: 0.00000            Coulomb: 0.00000            [K]
	------------------------------------------------------------------------------
	Average   0.00000            Van der Waals: 0.000000           Coulomb: 0.00000            [K]
	      +/- 0.00000                       +/- 0.000000                +/- 0.00000            [K]

Average Adsorbate-Adsorbate energy:
===================================
	Block[ 0] 0.00000            Van der Waals: 0.00000            Coulomb: 0.00000            [K]
	Block[ 1] 0.00000            Van der Waals: 0.00000            Coulomb: 0.00000            [K]
	Block[ 2] 0.00000            Van der Waals: 0.00000            Coulomb: 0.00000            [K]
	Block[ 3] 0.00000            Van der Waals: 0.00000            Coulomb: 0.00000            [K]
	Block[ 4] 0.00000            Van der Waals: 0.00000            Coulomb: 0.00000            [K]
	------------------------------------------------------------------------------
	Average   0.00000            Van der Waals: 0.000000           Coulomb: 0.00000            [K]
	      +/- 0.00000                       +/- 0.000000                +/- 0.00000            [K]

Average Cation-Cation energy:
=============================
	Block[ 0] 0.00000            Van der Waals: 0.00000            Coulomb: 0.00000            [K]
	Block[ 1] 0.00000            Van der Waals: 0.00000            Coulomb: 0.00000            [K]
	Block[ 2] 0.00000            Van der Waals: 0.00000            Coulomb: 0.00000            [K]
	Block[ 3] 0.00000            Van der Waals: 0.00000            Coulomb: 0.00000            [K]
	Block[ 4] 0.00000            Van der Waals: 0.00000            Coulomb: 0.00000            [K]
	------------------------------------------------------------------------------
	Average   0.00000            Van der Waals: 0.000000           Coulomb: 0.00000            [K]
	      +/- 0.00000                       +/- 0.000000                +/- 0.00000            [K]

Average Host-Adsorbate energy:
==============================
	Block[ 0] 0.00000            Van der Waals: 0.00000            Coulomb: 0.00000            [K]
	Block[ 1] 0.00000            Van der Waals: 0.00000            Coulomb: 0.00000            [K]
	Block[ 2] 0.00000            Van der Waals: 0.00000            Coulomb: 0.00000            [K]
	Block[ 3] 0.00000            Van der Waals: 0.00000            Coulomb: 0.00000            [K]
	Block[ 4] 0.00000            Van der Waals: 0.00000            Coulomb: 0.00000            [K]
	------------------------------------------------------------------------------
	Average   0.00000            Van der Waals: 0.000000           Coulomb: 0.00000            [K]
	      +/- 0.00000                       +/- 0.000000                +/- 0.00000            [K]

Average Host-Cation energy:
===========================
	Block[ 0] 0.00000            Van der Waals: 0.00000            Coulomb: 0.00000            [K]
	Block[ 1] 0.00000            Van der Waals: 0.00000            Coulomb: 0.00000            [K]
	Block[ 2] 0.00000            Van der Waals: 0.00000            Coulomb: 0.00000            [K]
	Block[ 3] 0.00000            Van der Waals: 0.00000            Coulomb: 0.00000            [K]
	Block[ 4] 0.00000            Van der Waals: 0.00000            Coulomb: 0.00000            [K]
	------------------------------------------------------------------------------
	Average   0.00000            Van der Waals: 0.000000           Coulomb: 0.00000            [K]
	      +/- 0.00000                       +/- 0.000000                +/- 0.00000            [K]

Average Adsorbate-Cation energy:
================================
	Block[ 0] 0.00000            Van der Waals: 0.00000            Coulomb: 0.00000            [K]
	Block[ 1] 0.00000            Van der Waals: 0.00000            Coulomb: 0.00000            [K]
	Block[ 2] 0.00000            Van der Waals: 0.00000            Coulomb: 0.00000            [K]
	Block[ 3] 0.00000            Van der Waals: 0.00000            Coulomb: 0.00000            [K]
	Block[ 4] 0.00000            Van der Waals: 0.00000            Coulomb: 0.00000            [K]
	------------------------------------------------------------------------------
	Average   0.00000            Van der Waals: 0.000000           Coulomb: 0.00000            [K]
	      +/- 0.00000                       +/- 0.000000                +/- 0.00000            [K]

Host polarization energy:
=======================
	Block[ 0]            0.00000 [K]
	Block[ 1]            0.00000 [K]
	Block[ 2]            0.00000 [K]
	Block[ 3]            0.00000 [K]
	Block[ 4]            0.00000 [K]
	------------------------------------------------------------------------------
	Average              0.00000 [K] +/-            0.00000 [K]

Adsorbate polarization energy:
=======================
	Block[ 0]            0.00000 [K]
	Block[ 1]            0.00000 [K]
	Block[ 2]            0.00000 [K]
	Block[ 3]            0.00000 [K]
	Block[ 4]            0.00000 [K]
	------------------------------------------------------------------------------
	Average              0.00000 [K] +/-            0.00000 [K]

Cation polarization energy:
=======================
	Block[ 0]            0.00000 [K]
	Block[ 1]            0.00000 [K]
	Block[ 2]            0.00000 [K]
	Block[ 3]            0.00000 [K]
	Block[ 4]            0.00000 [K]
	------------------------------------------------------------------------------
	Average              0.00000 [K] +/-            0.00000 [K]

Host back-polarization energy:
=======================
	Block[ 0]            0.00000 [K]
	Block[ 1]            0.00000 [K]
	Block[ 2]            0.00000 [K]
	Block[ 3]            0.00000 [K]
	Block[ 4]            0.00000 [K]
	------------------------------------------------------------------------------
	Average              0.00000 [K] +/-            0.00000 [K]

Adsorbate back-polarization energy:
=======================
	Block[ 0]            0.00000 [K]
	Block[ 1]            0.00000 [K]
	Block[ 2]            0.00000 [K]
	Block[ 3]            0.00000 [K]
	Block[ 4]            0.00000 [K]
	------------------------------------------------------------------------------
	Average              0.00000 [K] +/-            0.00000 [K]

Cation back-polarization energy:
=======================
	Block[ 0]            0.00000 [K]
	Block[ 1]            0.00000 [K]
	Block[ 2]            0.00000 [K]
	Block[ 3]            0.00000 [K]
	Block[ 4]            0.00000 [K]
	------------------------------------------------------------------------------
	Average              0.00000 [K] +/-            0.00000 [K]

Tail-correction energy:
=======================
	Block[ 0]            0.00000 [K]
	Block[ 1]            0.00000 [K]
	Block[ 2]            0.00000 [K]
	Block[ 3]            0.00000 [K]
	Block[ 4]            0.00000 [K]
	------------------------------------------------------------------------------
	Average              0.00000 [K] +/-            0.00000 [K]

Distance-constraints energy:
=======================
	Block[ 0]            0.00000 [K]
	Block[ 1]            0.00000 [K]
	Block[ 2]            0.00000 [K]
	Block[ 3]            0.00000 [K]
	Block[ 4]            0.00000 [K]
	------------------------------------------------------------------------------
	Average              0.00000 [K] +/-            0.00000 [K]

Angle-constraints energy:
=======================
	Block[ 0]            0.00000 [K]
	Block[ 1]            0.00000 [K]
	Block[ 2]            0.00000 [K]
	Block[ 3]            0.00000 [K]
	Block[ 4]            0.00000 [K]
	------------------------------------------------------------------------------
	Average              0.00000 [K] +/-            0.00000 [K]

Dihedral-constraints energy:
=======================
	Block[ 0]            0.00000 [K]
	Block[ 1]            0.00000 [K]
	Block[ 2]            0.00000 [K]
	Block[ 3]            0.00000 [K]
	Block[ 4]            0.00000 [K]
	------------------------------------------------------------------------------
	Average              0.00000 [K] +/-            0.00000 [K]

Inversion-bend constraints energy:
=======================
	Block[ 0]            0.00000 [K]
	Block[ 1]            0.00000 [K]
	Block[ 2]            0.00000 [K]
	Block[ 3]            0.00000 [K]
	Block[ 4]            0.00000 [K]
	------------------------------------------------------------------------------
	Average              0.00000 [K] +/-            0.00000 [K]

Out-of-plane-distance constraints energy:
=======================
	Block[ 0]            0.00000 [K]
	Block[ 1]            0.00000 [K]
	Block[ 2]            0.00000 [K]
	Block[ 3]            0.00000 [K]
	Block[ 4]            0.00000 [K]
	------------------------------------------------------------------------------
	Average              0.00000 [K] +/-            0.00000 [K]

Exclusion-constraints energy:
=======================
	Block[ 0]            0.00000 [K]
	Block[ 1]            0.00000 [K]
	Block[ 2]            0.00000 [K]
	Block[ 3]            0.00000 [K]
	Block[ 4]            0.00000 [K]
	------------------------------------------------------------------------------
	Average              0.00000 [K] +/-            0.00000 [K]

Total energy:
=============
	Block[ 0]            0.00000 [K]
	Block[ 1]            0.00000 [K]
	Block[ 2]            0.00000 [K]
	Block[ 3]            0.00000 [K]
	Block[ 4]            0.00000 [K]
	------------------------------------------------------------------------------
	Average              0.00000 [K] +/-            0.00000 [K]

Number of molecules:
====================

Component 0 [H2O]
-------------------------------------------------------------
	Block[ 0] 0.00000            [-]
	Block[ 1] 0.00000            [-]
	Block[ 2] 0.00000            [-]
	Block[ 3] 0.00000            [-]
	Block[ 4] 0.00000            [-]
	------------------------------------------------------------------------------
	Average loading absolute                              0.0000000000 +/-       0.0000000000 [-]
	Average loading absolute [molecules/unit cell]        0.0000000000 +/-       0.0000000000 [-]
	Average loading absolute [mol/kg framework]                  0.0000000000 +/-       0.0000000000 [-]
	Average loading absolute [milligram/gram framework]          0.0000000000 +/-       0.0000000000 [-]
	Average loading absolute [cm^3 (STP)/gr framework]           0.0000000000 +/-       0.0000000000 [-]
	Average loading absolute [cm^3 (STP)/cm^3 framework]         0.0000000000 +/-       0.0000000000 [-]

	Block[ 0] 0.00000            [-]
	Block[ 1] 0.00000            [-]
	Block[ 2] 0.00000            [-]
	Block[ 3] 0.00000            [-]
	Block[ 4] 0.00000            [-]
	------------------------------------------------------------------------------
	Average loading excess                              0.0000000000 +/-       0.0000000000 [-]
	Average loading excess [molecules/unit cell]        0.0000000000 +/-       0.0000000000 [-]
	Average loading excess [mol/kg framework]                    0.0000000000 +/-       0.0000000000 [-]
	Average loading excess [milligram/gram framework]            0.0000000000 +/-       0.0000000000 [-]
	Average loading excess [cm^3 (STP)/gr framework]             0.0000000000 +/-       0.0000000000 [-]
	Average loading excess [cm^3 (STP)/cm^3 framework]           0.0000000000 +/-       0.0000000000 [-]


Average Widom Rosenbluth factor:
================================
	Block[ 0] 1.34073e+59 [-]
	Block[ 1] 4.3884e+56 [-]
	Block[ 2] 4.84346e+62 [-]
	Block[ 3] 6.81325e+60 [-]
	Block[ 4] 1.67255e+61 [-]
	------------------------------------------------------------------------------
	[H2O] Average Widom Rosenbluth-weight:   1.01604e+62 +/- 265757778405851121266207172572198843294911746129986577965776896.000000 [-]

Average Widom chemical potential:
=================================
	Block[ 0] -43121.1 [-]
	Block[ 1] -41404.5 [-]
	Block[ 2] -45578.8 [-]
	Block[ 3] -44299.6 [-]
	Block[ 4] -44569 [-]
	------------------------------------------------------------------------------
	[H2O] Average chemical potential:   -43794.6 +/- 1982.856859 [K]

Average Widom Ideal-gas contribution:
=====================================
	Block[ 0] -2277.39 [-]
	Block[ 1] -2277.39 [-]
	Block[ 2] -2277.39 [-]
	Block[ 3] -2277.39 [-]
	Block[ 4] -2277.39 [-]
	------------------------------------------------------------------------------
	[H2O] Average Widom Ideal-gas chemical potential:   -2277.39 +/- 0.000042 [-]

Average Widom excess contribution:
==================================
	Block[ 0] -40843.8 [-]
	Block[ 1] -39127.2 [-]
	Block[ 2] -43301.4 [-]
	Block[ 3] -42022.2 [-]
	Block[ 4] -42291.6 [-]
	------------------------------------------------------------------------------
	[H2O] Average Widom excess chemical potential:   -41517.2 +/- 1982.856859 [-]

Average Gibbs Widom Rosenbluth factor:
======================================
	Block[ 0] 0 [-]
	Block[ 1] 0 [-]
	Block[ 2] 0 [-]
	Block[ 3] 0 [-]
	Block[ 4] 0 [-]
	------------------------------------------------------------------------------
	[H2O] Average Gibbs Widom Rosenbluth-weight:   0 +/- 0.000000 [-]

Average Gibbs Widom chemical potential:
=======================================
	Block[ 0] 0 [-]
	Block[ 1] 0 [-]
	Block[ 2] 0 [-]
	Block[ 3] 0 [-]
	Block[ 4] 0 [-]
	------------------------------------------------------------------------------
	[H2O] Average Gibbs chemical potential:   0 +/- 0.000000 [K]

Average osmostat calibration for alchemical transformation:
=======================================
	Block[ 0] 0 [-]
	Block[ 1] 0 [-]
	Block[ 2] 0 [-]
	Block[ 3] 0 [-]
	Block[ 4] 0 [-]
	------------------------------------------------------------------------------
	Average osmostat calibration for alchemical transformation:   0 +/- 0.000000 [K]
	Average osmostat calibration for alchemical transformation:   0 +/- 0.000000 [kJ/mol]

Average Gibbs Widom Ideal-gas contribution:
===========================================
	Block[ 0] 0 [-]
	Block[ 1] 0 [-]
	Block[ 2] 0 [-]
	Block[ 3] 0 [-]
	Block[ 4] 0 [-]
	------------------------------------------------------------------------------
	[H2O] Average Gibbs Ideal-gas chemical potential:   0 +/- 0.000000 [-]

Average Gibbs Widom excess contribution:
===========================================
	Block[ 0] 0 [-]
	Block[ 1] 0 [-]
	Block[ 2] 0 [-]
	Block[ 3] 0 [-]
	Block[ 4] 0 [-]
	------------------------------------------------------------------------------
	[H2O] Average Gibbs excess chemical potential:   0 +/- 0.000000 [-]

Average Henry coefficient:
==========================
	Block[ 0] 5.07131e+52 [mol/kg/Pa]
	Block[ 1] 1.65991e+50 [mol/kg/Pa]
	Block[ 2] 1.83204e+56 [mol/kg/Pa]
	Block[ 3] 2.57711e+54 [mol/kg/Pa]
	Block[ 4] 6.32642e+54 [mol/kg/Pa]
	------------------------------------------------------------------------------
	[H2O] Average Henry coefficient:  3.84316e+55 +/- 1.00523e+56 [mol/kg/Pa]

Average adsorption energy <U_gh>_1-<U_h>_0 obtained from Widom-insertion:
(Note: the total heat of adsorption is dH=<U_gh>_1-<U_h>_0 - <U_g> - RT)
=========================================================================
	Block[ 0] -44022.7453291616  [K]
	Block[ 1] -42089.9400300418  [K]
	Block[ 2] -46291.1065510350  [K]
	Block[ 3] -45201.1303890127  [K]
	Block[ 4] -45470.6430381662  [K]
	------------------------------------------------------------------------------
	[H2O] Average  <U_gh>_1-<U_h>_0:   -44615.1130674835 +/-    2022.0735756236 [K]       (   -370.9507924568 +/-      16.8124598082 kJ/mol)

Simulation finished,  1 warnings
WARNING: INAPPROPRIATE NUMBER OF UNIT CELLS USED


Wed Jul  9 21:49:40 2025
Simulation finished on Wednesday, July 09.
The end time was 09:49 PM.

