Compiler and run-time data
===========================================================================
RASPA 2.0.50
Compiled as a 64-bits application
Compiler: gcc 9.4.0
Compile Date = Jul  9 2025, Compile Time = 21:38:18

Thu Jul 10 20:42:36 2025
Simulation started on Thursday, July 10.
The start time was 08:42 PM.

Hostname:    LapTop2
OS type:     Linux on x86_64
OS release:  6.6.87.2-microsoft-standard-WSL2
OS version:  #1 SMP PREEMPT_DYNAMIC Thu Jun  5 18:30:46 UTC 2025

Simulation
===========================================================================
Dimensions: 3
Random number seed: 1752197399
RASPA directory set to: /home/jaysa/RASPA
String appended to output-files: 
Number of cycles: 10000
Number of initializing cycles: 0
Number of equilibration cycles: 0
Print every: 100
Triclinic boundary condition applied
Timestep: 0.000500
	Degrees of freedom:                        0
	Translational Degrees of freedom:          0
	Rotational Degrees of freedom:             0
	Degrees of freedom Framework:              0


Mutual consistent basic set of units:
======================================
Unit of temperature: Kelvin
Unit of length:      1e-10 [m]
Unit of time:        1e-12 [s]
Unit of mass:        1.66054e-27 [kg]
Unit of charge:      1.60218e-19 [C/particle]

Derived units and their conversion factors:
===========================================
Unit of energy:              1.66054e-23 [J]
Unit of force:               1.66054e-13 [N]
Unit of pressure:            1.66054e+07 [Pa]
Unit of velocity:            100 [m/s]
Unit of acceleration:        1e-08 [m^2/s]
Unit of diffusion:           1e-08 [m^2/s]
Unit of dipole moment:       1.60218e-29 [C.m]
Unit of electric potential:  0.000103643 [V]
Unit of electric field:      1.03643e+06 [V]
Unit of polarizability:      1.54587e-35 [-]
Unit of Coulomb potential:   167101.0800066561  [K]
Unit of dielectric constant: 0.0000154587       [s^2 C^2/(kg m^3)]
Unit of wave vectors:        5.3088374589       [cm^1]
Boltzmann constant:          0.8314464919       [-]

Internal conversion factors:
===========================================
Energy to Kelvin:                                    1.2027242847
FH correction factor                                 2.0211930949
Heat capacity conversion factor:                    10.0000088723
From Debye to internal units:                        4.8032067991
Isothermal compressibility conversion factor:        0.0000000602

Energy conversion factors:
===========================================
From mdyne/A to kcal/mol/A^2:           143.933
From mdyne/A to kj/mol/A^2:             602.214
From mdyne/A to K/A^2:                  72429.7
From mdyne A/rad^2 to kcal/mol/deg^2:   0.0438444


Properties computed
===========================================================================
Movies: no
Radial Distribution Function: no
Number of molecules GCMC histogram: no
Histogram of the molecule positions: no
Free energy profiles: no
Pore Size Distribution Function: no
End-to-end distance: no
Histogram of the energy of the system: no
Compute thermodynamic factors: no
Framework spacing histograms: no
Residence times histograms: no
Distance histograms: no
Bend Angle histograms: no
Dihedral angle histograms: no
Angle between planes histograms: no
Molecule properties: no
Infra-red spectra: no
Mean-squared displacement using modified order-N algorithm: no
Velocity-autocorrelation function modified order-N algorithm: no
Rotational velocity-autocorrelation function modified order-N algorithm: no
Molecular orientation-autocorrelation function modified order-N algorithm: no
Bond orientation-autocorrelation function modified order-N algorithm: no
Mean-squared displacement (conventional algorithm): no
Velocity-autocorrelation function (conventional algorithm): no
3D density grid for adsorbates: no
Compute cation an/or adsorption sites: no
dcTST snapshots: no
Compute pressure and stress: no


VTK
===========================================================================
VTK fractional-range position framework atoms: [-0.001000,1.001000] [-0.001000,1.001000] [-0.001000,1.001000]
VTK fractional-range position framework bonds: [-0.151000,1.151000] [-0.151000,1.151000] [-0.151000,1.151000]
VTK fractional-range com-position adsorbate molecules: [-0.101000,1.101000] [-0.101000,1.101000] [-0.101000,1.101000]
VTK fractional-range com-position cation molecules: [-0.101000,1.101000] [-0.101000,1.101000] [-0.101000,1.101000]
	3D free energy grid made for the full simulation-cell


Thermo/Baro-stat NHC parameters
===========================================================================
External temperature: 300 [K]
Beta: 0.00400908 [energy unit]
External Pressure: 0 [Pa]


Thermostat chain-length: 3
Timescale parameter for thermostat: 0.150000 [ps]
Barostat chain-length:   3
Timescale parameter for barostat:   0.150000 [ps]

Number of Yoshida-Suzuki decomposition steps: 5
Number of respa steps: 5


Method and settings for electrostatics
===============================================================================
Dielectric constant of the medium : 1.000000
Charge from charge-equilibration: yes
Symmetrize the charges of the framework: no
Ewald summation is used (exact solution of a periodic system)
Relative precision                : 1e-06
Alpha convergence parameter       : 0.265058
kvec (x,y,z)                      : 10 12 12


CFC-RXMC parameters
===========================================================================
Number of reactions: 0


Rattle parameters
===========================================================================
Distance constraint type: r^2-r^2_0
Bend angle constraint type: theta-theta_0
Dihedral angle constraint type: phi-phi_0
Inversion-bend angle constraint type: chi-chi_0
Out-of-plane distance constraint type: r-r_0


Spectra parameters
===========================================================================
Compute normal modes: no


Minimization parameters
===========================================================================
Generalized coordinates are: Cartesian center-of-mass, elements of the orientational matrix p1,p2,p3 and strain
Potential derivatives are evaluated: analytically
Translation of the system is removed from the generalized Hessian: no
Rotation of the system is removed from the generalized Hessian: no
Maximum step-length: 0.3
Convergence factor: 1
Maximum number of minimization steps: 10000
Use gradients in the line-minimizations: yes
RMS gradient tolerance: 1e-06
Maximum gradient tolerance: 1e-06

Distance constraints: 0
Angle constraints: 0
Dihedral constraints: 0

Improper dihedral constraints: 0

Inversion-bend constraints: 0

Out-of-plane constraints: 0

Harmonic distance constraints: 0
Harmonic angle constraints: 0
Harmonic dihedral constraints: 0

Dihedral mid-point measurements: 0

All framework atoms are fixed

Fixed adsorbate atoms:  
Fixed adsorbate groups (center-of-mass):  
Fixed adsorbate groups (orientation):  

Fixed cation atoms:  
Fixed cation groups (center-of-mass):  
Fixed cation groups (orientation):  


dcTST parameters
===========================================================================
Free energy profiles computed: no
Free energy profiles written every 5000 cycles
Free energy mapping: mapped to a,b,c-coordinates
BarrierPosition:       0.0000000000       0.0000000000       0.0000000000
BarrierNormal:         0.0000000000       0.0000000000       0.0000000000
Start with a molecule on top of the barrier: no
Maximum distance to barrier (e.g. distance to minumum free energy):       0.0000000000 [A]
Maximum trajectory time:      10.0000000000 [ps]
Each configuration is used with 5 different initial velocities


Cbmc parameters
===========================================================================
Biasing method: using only the VDW part
Number of trial positions:                                       10
Number of trial positions (reinsertion):                         10
Number of trial positions (partial reinsertion):                 10
Number of trial positions (identity-change):                     10
Number of trial positions (Gibbs particle transfer):             10
Number of trial positions (insertion/deletion):                  10
Number of trial positions (Widom insertion):                     10
Number of trial positions coupled Torsion-selection:             100
Number of trial positions first bead:                            10
Number of trial positions first bead (reinsertion):              10
Number of trial positions first bead (partial reinsertion):      10
Number of trial positions first bead (identity-change):          10
Number of trial positions first bead (Gibbs particle transfer):  10
Number of trial positions first bead (insertion/deletion):       10
Number of trial positions first bead (Widom insertion):          10
Number of trial moves per open bead:                             150
Target acceptance ratio small-mc scheme:                         0.400000
Energy overlap criteria:                                         1e+07
Minimal Rosenbluth factor:                                       1e-150


Pseudo atoms: 44
===========================================================================
Pseudo Atom[   0] Name UNIT     Oxidation:          Element: H    pdb-name: H    Scat. Types:   1   1 Mass=1.000000000  B-factor:0.000   
                 Charge=1.000000000          Polarization=0.000000000  [A^3] (considered a charged atom and no polarization)  Interactions: yes
                 Anisotropic factor:    0.000 [-] (Absolute), Radius:    1.000 [A], Framework-atom:  no
Pseudo Atom[   1] Name CF3      Oxidation: +0       Element: C    pdb-name: C    Scat. Types:   7   6 Mass=69.000000000 B-factor:1.000   
                 Charge=0.000000000          Polarization=0.000000000  [A^3] (considered a chargeless atom and no polarization)  Interactions: yes
                 Anisotropic factor:    0.000 [-] (Relative), Radius:    1.000 [A], Framework-atom:  no
Pseudo Atom[   2] Name CF2      Oxidation: +0       Element: C    pdb-name: C    Scat. Types:   7   6 Mass=50.000000000 B-factor:1.000   
                 Charge=0.000000000          Polarization=0.000000000  [A^3] (considered a chargeless atom and no polarization)  Interactions: yes
                 Anisotropic factor:    0.000 [-] (Relative), Radius:    1.000 [A], Framework-atom:  no
Pseudo Atom[   3] Name CF21     Oxidation: +0       Element: C    pdb-name: C    Scat. Types:   7   6 Mass=50.000000000 B-factor:1.000   
                 Charge=0.120000000          Polarization=0.000000000  [A^3] (considered a charged atom and no polarization)  Interactions: yes
                 Anisotropic factor:    0.000 [-] (Relative), Radius:    1.000 [A], Framework-atom:  no
Pseudo Atom[   4] Name Co       Oxidation: +0       Element: C    pdb-name: C    Scat. Types:   7   6 Mass=12.010000000 B-factor:1.000   
                 Charge=0.420000000          Polarization=0.000000000  [A^3] (considered a charged atom and no polarization)  Interactions: yes
                 Anisotropic factor:    0.000 [-] (Relative), Radius:    0.700 [A], Framework-atom:  no
Pseudo Atom[   5] Name Oc       Oxidation: +0       Element: O    pdb-name: O    Scat. Types:   9   8 Mass=15.999000000 B-factor:1.000   
                 Charge=-0.450000000         Polarization=0.000000000  [A^3] (considered a charged atom and no polarization)  Interactions: yes
                 Anisotropic factor:    0.000 [-] (Relative), Radius:    0.700 [A], Framework-atom:  no
Pseudo Atom[   6] Name Oh       Oxidation: +0       Element: O    pdb-name: O    Scat. Types:   9   8 Mass=15.999000000 B-factor:1.000   
                 Charge=-0.460000000         Polarization=0.000000000  [A^3] (considered a charged atom and no polarization)  Interactions: yes
                 Anisotropic factor:    0.000 [-] (Relative), Radius:    1.000 [A], Framework-atom:  no
Pseudo Atom[   7] Name Ho       Oxidation: +0       Element: H    pdb-name: H    Scat. Types:   1   1 Mass=1.008000000  B-factor:1.000   
                 Charge=0.370000000          Polarization=0.000000000  [A^3] (considered a charged atom and no polarization)  Interactions: yes
                 Anisotropic factor:    0.000 [-] (Relative), Radius:    0.000 [A], Framework-atom:  no
Pseudo Atom[   8] Name Ow       Oxidation: +0       Element: O    pdb-name: O    Scat. Types:   9   8 Mass=15.999400000 B-factor:1.000   
                 Charge=-0.482000000         Polarization=0.000000000  [A^3] (considered a charged atom and no polarization)  Interactions: yes
                 Anisotropic factor:    0.000 [-] (Absolute), Radius:    0.500 [A], Framework-atom:  no
Pseudo Atom[   9] Name Hw       Oxidation: +0       Element: H    pdb-name: H    Scat. Types:   1   1 Mass=1.000800000  B-factor:1.000   
                 Charge=0.241000000          Polarization=0.000000000  [A^3] (considered a charged atom and no polarization)  Interactions: yes
                 Anisotropic factor:    0.000 [-] (Absolute), Radius:    1.000 [A], Framework-atom:  no
Pseudo Atom[  10] Name He       Oxidation: +0       Element: He   pdb-name: He   Scat. Types:   3   2 Mass=4.002602000  B-factor:1.000   
                 Charge=0.000000000          Polarization=0.000000000  [A^3] (considered a chargeless atom and no polarization)  Interactions: yes
                 Anisotropic factor:    0.000 [-] (Relative), Radius:    1.000 [A], Framework-atom:  no
Pseudo Atom[  11] Name Al2      Oxidation:          Element: Al   pdb-name: Al   Scat. Types:  14  13 Mass=26.981538630 B-factor:0.000   
                 Charge=7.064808262    (av)  Polarization=6.800000000  [A^3] (considered a charged atom and no polarization)  Interactions: yes
                 Anisotropic factor:    0.000 [-] (Absolute), Radius:    1.240 [A], Framework-atom: yes (charge from structure file)
Pseudo Atom[  12] Name Al1      Oxidation:          Element: Al   pdb-name: Al   Scat. Types:  14  13 Mass=26.981538630 B-factor:0.000   
                 Charge=7.323263975    (av)  Polarization=6.800000000  [A^3] (considered a charged atom and no polarization)  Interactions: yes
                 Anisotropic factor:    0.000 [-] (Absolute), Radius:    1.240 [A], Framework-atom: yes (charge from structure file)
Pseudo Atom[  13] Name Al3      Oxidation:          Element: Al   pdb-name: Al   Scat. Types:  14  13 Mass=26.981538630 B-factor:0.000   
                 Charge=7.835414999    (av)  Polarization=6.800000000  [A^3] (considered a charged atom and no polarization)  Interactions: yes
                 Anisotropic factor:    0.000 [-] (Absolute), Radius:    1.240 [A], Framework-atom: yes (charge from structure file)
Pseudo Atom[  14] Name O4       Oxidation:          Element: O    pdb-name: O    Scat. Types:   9   8 Mass=15.999404927 B-factor:0.000   
                 Charge=-1.742813633   (av)  Polarization=0.802000000  [A^3] (considered a charged atom and no polarization)  Interactions: yes
                 Anisotropic factor:    0.000 [-] (Absolute), Radius:    0.640 [A], Framework-atom: yes (charge from structure file)
Pseudo Atom[  15] Name O2       Oxidation:          Element: O    pdb-name: O    Scat. Types:   9   8 Mass=15.999404927 B-factor:0.000   
                 Charge=-3.186648745   (av)  Polarization=0.802000000  [A^3] (considered a charged atom and no polarization)  Interactions: yes
                 Anisotropic factor:    0.000 [-] (Absolute), Radius:    0.640 [A], Framework-atom: yes (charge from structure file)
Pseudo Atom[  16] Name H2       Oxidation:          Element: H    pdb-name: H    Scat. Types:   1   1 Mass=1.007940754  B-factor:0.000   
                 Charge=0.818121828    (av)  Polarization=0.666793000  [A^3] (considered a charged atom and no polarization)  Interactions: yes
                 Anisotropic factor:    0.000 [-] (Absolute), Radius:    0.320 [A], Framework-atom: yes (charge from structure file)
Pseudo Atom[  17] Name O7       Oxidation:          Element: O    pdb-name: O    Scat. Types:   9   8 Mass=15.999404927 B-factor:0.000   
                 Charge=-1.777330528   (av)  Polarization=0.802000000  [A^3] (considered a charged atom and no polarization)  Interactions: yes
                 Anisotropic factor:    0.000 [-] (Absolute), Radius:    0.640 [A], Framework-atom: yes (charge from structure file)
Pseudo Atom[  18] Name O1       Oxidation:          Element: O    pdb-name: O    Scat. Types:   9   8 Mass=15.999404927 B-factor:0.000   
                 Charge=-3.371306623   (av)  Polarization=0.802000000  [A^3] (considered a charged atom and no polarization)  Interactions: yes
                 Anisotropic factor:    0.000 [-] (Absolute), Radius:    0.640 [A], Framework-atom: yes (charge from structure file)
Pseudo Atom[  19] Name H1       Oxidation:          Element: H    pdb-name: H    Scat. Types:   1   1 Mass=1.007940754  B-factor:0.000   
                 Charge=0.872099496    (av)  Polarization=0.666793000  [A^3] (considered a charged atom and no polarization)  Interactions: yes
                 Anisotropic factor:    0.000 [-] (Absolute), Radius:    0.320 [A], Framework-atom: yes (charge from structure file)
Pseudo Atom[  20] Name O5       Oxidation:          Element: O    pdb-name: O    Scat. Types:   9   8 Mass=15.999404927 B-factor:0.000   
                 Charge=-1.724868226   (av)  Polarization=0.802000000  [A^3] (considered a charged atom and no polarization)  Interactions: yes
                 Anisotropic factor:    0.000 [-] (Absolute), Radius:    0.640 [A], Framework-atom: yes (charge from structure file)
Pseudo Atom[  21] Name O9       Oxidation:          Element: O    pdb-name: O    Scat. Types:   9   8 Mass=15.999404927 B-factor:0.000   
                 Charge=-1.711182416   (av)  Polarization=0.802000000  [A^3] (considered a charged atom and no polarization)  Interactions: yes
                 Anisotropic factor:    0.000 [-] (Absolute), Radius:    0.640 [A], Framework-atom: yes (charge from structure file)
Pseudo Atom[  22] Name O3       Oxidation:          Element: O    pdb-name: O    Scat. Types:   9   8 Mass=15.999404927 B-factor:0.000   
                 Charge=-1.683725029   (av)  Polarization=0.802000000  [A^3] (considered a charged atom and no polarization)  Interactions: yes
                 Anisotropic factor:    0.000 [-] (Absolute), Radius:    0.640 [A], Framework-atom: yes (charge from structure file)
Pseudo Atom[  23] Name O6       Oxidation:          Element: O    pdb-name: O    Scat. Types:   9   8 Mass=15.999404927 B-factor:0.000   
                 Charge=-1.684156455   (av)  Polarization=0.802000000  [A^3] (considered a charged atom and no polarization)  Interactions: yes
                 Anisotropic factor:    0.000 [-] (Absolute), Radius:    0.640 [A], Framework-atom: yes (charge from structure file)
Pseudo Atom[  24] Name O10      Oxidation:          Element: O    pdb-name: O    Scat. Types:   9   8 Mass=15.999404927 B-factor:0.000   
                 Charge=-1.871054389   (av)  Polarization=0.802000000  [A^3] (considered a charged atom and no polarization)  Interactions: yes
                 Anisotropic factor:    0.000 [-] (Absolute), Radius:    0.640 [A], Framework-atom: yes (charge from structure file)
Pseudo Atom[  25] Name O8       Oxidation:          Element: O    pdb-name: O    Scat. Types:   9   8 Mass=15.999404927 B-factor:0.000   
                 Charge=-1.855270427   (av)  Polarization=0.802000000  [A^3] (considered a charged atom and no polarization)  Interactions: yes
                 Anisotropic factor:    0.000 [-] (Absolute), Radius:    0.640 [A], Framework-atom: yes (charge from structure file)
Pseudo Atom[  26] Name N4       Oxidation:          Element: N    pdb-name: N    Scat. Types:   8   7 Mass=14.006703212 B-factor:0.000   
                 Charge=-0.072911398   (av)  Polarization=1.100000000  [A^3] (considered a charged atom and no polarization)  Interactions: yes
                 Anisotropic factor:    0.000 [-] (Absolute), Radius:    0.710 [A], Framework-atom: yes (charge from structure file)
Pseudo Atom[  27] Name H4       Oxidation:          Element: H    pdb-name: H    Scat. Types:   1   1 Mass=1.007940754  B-factor:0.000   
                 Charge=0.093404624    (av)  Polarization=0.666793000  [A^3] (considered a charged atom and no polarization)  Interactions: yes
                 Anisotropic factor:    0.000 [-] (Absolute), Radius:    0.320 [A], Framework-atom: yes (charge from structure file)
Pseudo Atom[  28] Name N1       Oxidation:          Element: N    pdb-name: N    Scat. Types:   8   7 Mass=14.006703212 B-factor:0.000   
                 Charge=-0.076801077   (av)  Polarization=1.100000000  [A^3] (considered a charged atom and no polarization)  Interactions: yes
                 Anisotropic factor:    0.000 [-] (Absolute), Radius:    0.710 [A], Framework-atom: yes (charge from structure file)
Pseudo Atom[  29] Name H1A      Oxidation:          Element: H    pdb-name: H    Scat. Types:   1   1 Mass=1.007940754  B-factor:0.000   
                 Charge=0.072628518    (av)  Polarization=0.666793000  [A^3] (considered a charged atom and no polarization)  Interactions: yes
                 Anisotropic factor:    0.000 [-] (Absolute), Radius:    0.320 [A], Framework-atom: yes (charge from structure file)
Pseudo Atom[  30] Name N2       Oxidation:          Element: N    pdb-name: N    Scat. Types:   8   7 Mass=14.006703212 B-factor:0.000   
                 Charge=-0.030242060   (av)  Polarization=1.100000000  [A^3] (considered a charged atom and no polarization)  Interactions: yes
                 Anisotropic factor:    0.000 [-] (Absolute), Radius:    0.710 [A], Framework-atom: yes (charge from structure file)
Pseudo Atom[  31] Name N3       Oxidation:          Element: N    pdb-name: N    Scat. Types:   8   7 Mass=14.006703212 B-factor:0.000   
                 Charge=-0.029005611   (av)  Polarization=1.100000000  [A^3] (considered a charged atom and no polarization)  Interactions: yes
                 Anisotropic factor:    0.000 [-] (Absolute), Radius:    0.710 [A], Framework-atom: yes (charge from structure file)
Pseudo Atom[  32] Name C1       Oxidation:          Element: C    pdb-name: C    Scat. Types:   7   6 Mass=12.010735897 B-factor:0.000   
                 Charge=1.286594746    (av)  Polarization=1.760000000  [A^3] (considered a charged atom and no polarization)  Interactions: yes
                 Anisotropic factor:    0.000 [-] (Absolute), Radius:    0.750 [A], Framework-atom: yes (charge from structure file)
Pseudo Atom[  33] Name C6       Oxidation:          Element: C    pdb-name: C    Scat. Types:   7   6 Mass=12.010735897 B-factor:0.000   
                 Charge=1.375869504    (av)  Polarization=1.760000000  [A^3] (considered a charged atom and no polarization)  Interactions: yes
                 Anisotropic factor:    0.000 [-] (Absolute), Radius:    0.750 [A], Framework-atom: yes (charge from structure file)
Pseudo Atom[  34] Name C5       Oxidation:          Element: C    pdb-name: C    Scat. Types:   7   6 Mass=12.010735897 B-factor:0.000   
                 Charge=1.266621837    (av)  Polarization=1.760000000  [A^3] (considered a charged atom and no polarization)  Interactions: yes
                 Anisotropic factor:    0.000 [-] (Absolute), Radius:    0.750 [A], Framework-atom: yes (charge from structure file)
Pseudo Atom[  35] Name C3       Oxidation:          Element: C    pdb-name: C    Scat. Types:   7   6 Mass=12.010735897 B-factor:0.000   
                 Charge=0.370252494    (av)  Polarization=1.760000000  [A^3] (considered a charged atom and no polarization)  Interactions: yes
                 Anisotropic factor:    0.000 [-] (Absolute), Radius:    0.750 [A], Framework-atom: yes (charge from structure file)
Pseudo Atom[  36] Name H3       Oxidation:          Element: H    pdb-name: H    Scat. Types:   1   1 Mass=1.007940754  B-factor:0.000   
                 Charge=-0.103171958   (av)  Polarization=0.666793000  [A^3] (considered a charged atom and no polarization)  Interactions: yes
                 Anisotropic factor:    0.000 [-] (Absolute), Radius:    0.320 [A], Framework-atom: yes (charge from structure file)
Pseudo Atom[  37] Name C10      Oxidation:          Element: C    pdb-name: C    Scat. Types:   7   6 Mass=12.010735897 B-factor:0.000   
                 Charge=1.335738885    (av)  Polarization=1.760000000  [A^3] (considered a charged atom and no polarization)  Interactions: yes
                 Anisotropic factor:    0.000 [-] (Absolute), Radius:    0.750 [A], Framework-atom: yes (charge from structure file)
Pseudo Atom[  38] Name C8       Oxidation:          Element: C    pdb-name: C    Scat. Types:   7   6 Mass=12.010735897 B-factor:0.000   
                 Charge=0.403012825    (av)  Polarization=1.760000000  [A^3] (considered a charged atom and no polarization)  Interactions: yes
                 Anisotropic factor:    0.000 [-] (Absolute), Radius:    0.750 [A], Framework-atom: yes (charge from structure file)
Pseudo Atom[  39] Name H8       Oxidation:          Element: H    pdb-name: H    Scat. Types:   1   1 Mass=1.007940754  B-factor:0.000   
                 Charge=-0.110995990   (av)  Polarization=0.666793000  [A^3] (considered a charged atom and no polarization)  Interactions: yes
                 Anisotropic factor:    0.000 [-] (Absolute), Radius:    0.320 [A], Framework-atom: yes (charge from structure file)
Pseudo Atom[  40] Name C2       Oxidation:          Element: C    pdb-name: C    Scat. Types:   7   6 Mass=12.010735897 B-factor:0.000   
                 Charge=-0.389592861   (av)  Polarization=1.760000000  [A^3] (considered a charged atom and no polarization)  Interactions: yes
                 Anisotropic factor:    0.000 [-] (Absolute), Radius:    0.750 [A], Framework-atom: yes (charge from structure file)
Pseudo Atom[  41] Name C9       Oxidation:          Element: C    pdb-name: C    Scat. Types:   7   6 Mass=12.010735897 B-factor:0.000   
                 Charge=-0.427527546   (av)  Polarization=1.760000000  [A^3] (considered a charged atom and no polarization)  Interactions: yes
                 Anisotropic factor:    0.000 [-] (Absolute), Radius:    0.750 [A], Framework-atom: yes (charge from structure file)
Pseudo Atom[  42] Name C7       Oxidation:          Element: C    pdb-name: C    Scat. Types:   7   6 Mass=12.010735897 B-factor:0.000   
                 Charge=-0.422282877   (av)  Polarization=1.760000000  [A^3] (considered a charged atom and no polarization)  Interactions: yes
                 Anisotropic factor:    0.000 [-] (Absolute), Radius:    0.750 [A], Framework-atom: yes (charge from structure file)
Pseudo Atom[  43] Name C4       Oxidation:          Element: C    pdb-name: C    Scat. Types:   7   6 Mass=12.010735897 B-factor:0.000   
                 Charge=-0.396832511   (av)  Polarization=1.760000000  [A^3] (considered a charged atom and no polarization)  Interactions: yes
                 Anisotropic factor:    0.000 [-] (Absolute), Radius:    0.750 [A], Framework-atom: yes (charge from structure file)


Forcefield: local
===========================================================================
Minimal distance: 1
CutOff VDW : 12.000000 (144.000000)
CutOff VDW switching on: 10.800000 (116.640000)
CutOff charge-charge : 12.000000 (144.000000)
CutOff charge-charge switching on: 7.800000 (60.840000)
CutOff charge-bonddipole : 12.000000 (144.000000)
CutOff charge-bondipole switching on: 8.400000 (70.560000)
CutOff bonddipole-bonddipole : 12.000000 (144.000000)
CutOff bonddipole-bondipole switching on: 9.000000 (81.000000)
Polarization is neglected
All potentials are shifted to zero at the Cutoff

General mixing rule: Lorentz-Berthelot mixing rules are used FIRST for cross terms
0 cross terms are overwritten using the individual mixing rules from the file 'force_field_mixing_rules.def'
and then 0 terms are overwritten using the specific interactions from the file 'force_field.def'

The force field and all the interactions:
    CF3 -     CF3 [LENNARD_JONES] p_0/k_B:  87.00000 [K], p_1: 4.36000 [A], shift/k_B:  -0.79874920 [K], tailcorrection: no
    CF3 -     CF2 [LENNARD_JONES] p_0/k_B:  48.91319 [K], p_1: 4.54500 [A], shift/k_B:  -0.57586128 [K], tailcorrection: no
    CF3 -    CF21 [LENNARD_JONES] p_0/k_B:  48.91319 [K], p_1: 4.54500 [A], shift/k_B:  -0.57586128 [K], tailcorrection: no
    CF3 -      Co [LENNARD_JONES] p_0/k_B:  59.72437 [K], p_1: 4.13000 [A], shift/k_B:  -0.39637113 [K], tailcorrection: no
    CF3 -      Oc [LENNARD_JONES] p_0/k_B:  82.90356 [K], p_1: 3.70500 [A], shift/k_B:  -0.28701103 [K], tailcorrection: no
    CF3 -      Oh [LENNARD_JONES] p_0/k_B:  89.94999 [K], p_1: 3.69000 [A], shift/k_B:  -0.30392365 [K], tailcorrection: no
    CF3 -      Ho [ZERO_POTENTIAL]
    CF3 -      Ow [LENNARD_JONES] p_0/k_B:  64.72831 [K], p_1: 3.69658 [A], shift/k_B:  -0.22105110 [K], tailcorrection: no
    CF3 -      Hw [ZERO_POTENTIAL]
    CF3 -      He [LENNARD_JONES] p_0/k_B:  30.79448 [K], p_1: 3.50000 [A], shift/k_B:  -0.07578552 [K], tailcorrection: no
    CF3 -     Al2 [LENNARD_JONES] p_0/k_B: 116.49818 [K], p_1: 4.13553 [A], shift/k_B:  -0.77937661 [K], tailcorrection: no
    CF3 -     Al1 [LENNARD_JONES] p_0/k_B: 116.49818 [K], p_1: 4.13553 [A], shift/k_B:  -0.77937661 [K], tailcorrection: no
    CF3 -     Al3 [LENNARD_JONES] p_0/k_B: 116.49818 [K], p_1: 4.13553 [A], shift/k_B:  -0.77937661 [K], tailcorrection: no
    CF3 -      O4 [LENNARD_JONES] p_0/k_B:  64.72831 [K], p_1: 3.69658 [A], shift/k_B:  -0.22105110 [K], tailcorrection: no
    CF3 -      O2 [LENNARD_JONES] p_0/k_B:  64.72831 [K], p_1: 3.69658 [A], shift/k_B:  -0.22105110 [K], tailcorrection: no
    CF3 -      H2 [LENNARD_JONES] p_0/k_B:  25.79645 [K], p_1: 3.60321 [A], shift/k_B:  -0.07557036 [K], tailcorrection: no
    CF3 -      O7 [LENNARD_JONES] p_0/k_B:  64.72831 [K], p_1: 3.69658 [A], shift/k_B:  -0.22105110 [K], tailcorrection: no
    CF3 -      O1 [LENNARD_JONES] p_0/k_B:  64.72831 [K], p_1: 3.69658 [A], shift/k_B:  -0.22105110 [K], tailcorrection: no
    CF3 -      H1 [LENNARD_JONES] p_0/k_B:  25.79645 [K], p_1: 3.60321 [A], shift/k_B:  -0.07557036 [K], tailcorrection: no
    CF3 -      O5 [LENNARD_JONES] p_0/k_B:  64.72831 [K], p_1: 3.69658 [A], shift/k_B:  -0.22105110 [K], tailcorrection: no
    CF3 -      O9 [LENNARD_JONES] p_0/k_B:  64.72831 [K], p_1: 3.69658 [A], shift/k_B:  -0.22105110 [K], tailcorrection: no
    CF3 -      O3 [LENNARD_JONES] p_0/k_B:  64.72831 [K], p_1: 3.69658 [A], shift/k_B:  -0.22105110 [K], tailcorrection: no
    CF3 -      O6 [LENNARD_JONES] p_0/k_B:  64.72831 [K], p_1: 3.69658 [A], shift/k_B:  -0.22105110 [K], tailcorrection: no
    CF3 -     O10 [LENNARD_JONES] p_0/k_B:  64.72831 [K], p_1: 3.69658 [A], shift/k_B:  -0.22105110 [K], tailcorrection: no
    CF3 -      O8 [LENNARD_JONES] p_0/k_B:  64.72831 [K], p_1: 3.69658 [A], shift/k_B:  -0.22105110 [K], tailcorrection: no
    CF3 -      N4 [LENNARD_JONES] p_0/k_B:  58.21151 [K], p_1: 3.81128 [A], shift/k_B:  -0.23875943 [K], tailcorrection: no
    CF3 -      H4 [LENNARD_JONES] p_0/k_B:  25.79645 [K], p_1: 3.60321 [A], shift/k_B:  -0.07557036 [K], tailcorrection: no
    CF3 -      N1 [LENNARD_JONES] p_0/k_B:  58.21151 [K], p_1: 3.81128 [A], shift/k_B:  -0.23875943 [K], tailcorrection: no
    CF3 -     H1A [LENNARD_JONES] p_0/k_B:  25.79645 [K], p_1: 3.60321 [A], shift/k_B:  -0.07557036 [K], tailcorrection: no
    CF3 -      N2 [LENNARD_JONES] p_0/k_B:  58.21151 [K], p_1: 3.81128 [A], shift/k_B:  -0.23875943 [K], tailcorrection: no
    CF3 -      N3 [LENNARD_JONES] p_0/k_B:  58.21151 [K], p_1: 3.81128 [A], shift/k_B:  -0.23875943 [K], tailcorrection: no
    CF3 -      C1 [LENNARD_JONES] p_0/k_B:  64.52511 [K], p_1: 3.91650 [A], shift/k_B:  -0.31157419 [K], tailcorrection: no
    CF3 -      C6 [LENNARD_JONES] p_0/k_B:  64.52511 [K], p_1: 3.91650 [A], shift/k_B:  -0.31157419 [K], tailcorrection: no
    CF3 -      C5 [LENNARD_JONES] p_0/k_B:  64.52511 [K], p_1: 3.91650 [A], shift/k_B:  -0.31157419 [K], tailcorrection: no
    CF3 -      C3 [LENNARD_JONES] p_0/k_B:  64.52511 [K], p_1: 3.91650 [A], shift/k_B:  -0.31157419 [K], tailcorrection: no
    CF3 -      H3 [LENNARD_JONES] p_0/k_B:  25.79645 [K], p_1: 3.60321 [A], shift/k_B:  -0.07557036 [K], tailcorrection: no
    CF3 -     C10 [LENNARD_JONES] p_0/k_B:  64.52511 [K], p_1: 3.91650 [A], shift/k_B:  -0.31157419 [K], tailcorrection: no
    CF3 -      C8 [LENNARD_JONES] p_0/k_B:  64.52511 [K], p_1: 3.91650 [A], shift/k_B:  -0.31157419 [K], tailcorrection: no
    CF3 -      H8 [LENNARD_JONES] p_0/k_B:  25.79645 [K], p_1: 3.60321 [A], shift/k_B:  -0.07557036 [K], tailcorrection: no
    CF3 -      C2 [LENNARD_JONES] p_0/k_B:  64.52511 [K], p_1: 3.91650 [A], shift/k_B:  -0.31157419 [K], tailcorrection: no
    CF3 -      C9 [LENNARD_JONES] p_0/k_B:  64.52511 [K], p_1: 3.91650 [A], shift/k_B:  -0.31157419 [K], tailcorrection: no
    CF3 -      C7 [LENNARD_JONES] p_0/k_B:  64.52511 [K], p_1: 3.91650 [A], shift/k_B:  -0.31157419 [K], tailcorrection: no
    CF3 -      C4 [LENNARD_JONES] p_0/k_B:  64.52511 [K], p_1: 3.91650 [A], shift/k_B:  -0.31157419 [K], tailcorrection: no
    CF2 -     CF2 [LENNARD_JONES] p_0/k_B:  27.50000 [K], p_1: 4.73000 [A], shift/k_B:  -0.41099847 [K], tailcorrection: no
    CF2 -    CF21 [LENNARD_JONES] p_0/k_B:  27.50000 [K], p_1: 4.73000 [A], shift/k_B:  -0.41099847 [K], tailcorrection: no
    CF2 -      Co [LENNARD_JONES] p_0/k_B:  33.57827 [K], p_1: 4.31500 [A], shift/k_B:  -0.28971819 [K], tailcorrection: no
    CF2 -      Oc [LENNARD_JONES] p_0/k_B:  46.61008 [K], p_1: 3.89000 [A], shift/k_B:  -0.21609552 [K], tailcorrection: no
    CF2 -      Oh [LENNARD_JONES] p_0/k_B:  50.57173 [K], p_1: 3.87500 [A], shift/k_B:  -0.22909620 [K], tailcorrection: no
    CF2 -      Ho [ZERO_POTENTIAL]
    CF2 -      Ow [LENNARD_JONES] p_0/k_B:  36.39159 [K], p_1: 3.88158 [A], shift/k_B:  -0.16654197 [K], tailcorrection: no
    CF2 -      Hw [ZERO_POTENTIAL]
    CF2 -      He [LENNARD_JONES] p_0/k_B:  17.31329 [K], p_1: 3.68500 [A], shift/k_B:  -0.05802468 [K], tailcorrection: no
    CF2 -     Al2 [LENNARD_JONES] p_0/k_B:  65.49767 [K], p_1: 4.32052 [A], shift/k_B:  -0.56946944 [K], tailcorrection: no
    CF2 -     Al1 [LENNARD_JONES] p_0/k_B:  65.49767 [K], p_1: 4.32052 [A], shift/k_B:  -0.56946944 [K], tailcorrection: no
    CF2 -     Al3 [LENNARD_JONES] p_0/k_B:  65.49767 [K], p_1: 4.32052 [A], shift/k_B:  -0.56946944 [K], tailcorrection: no
    CF2 -      O4 [LENNARD_JONES] p_0/k_B:  36.39159 [K], p_1: 3.88158 [A], shift/k_B:  -0.16654197 [K], tailcorrection: no
    CF2 -      O2 [LENNARD_JONES] p_0/k_B:  36.39159 [K], p_1: 3.88158 [A], shift/k_B:  -0.16654197 [K], tailcorrection: no
    CF2 -      H2 [LENNARD_JONES] p_0/k_B:  14.50330 [K], p_1: 3.78821 [A], shift/k_B:  -0.05736057 [K], tailcorrection: no
    CF2 -      O7 [LENNARD_JONES] p_0/k_B:  36.39159 [K], p_1: 3.88158 [A], shift/k_B:  -0.16654197 [K], tailcorrection: no
    CF2 -      O1 [LENNARD_JONES] p_0/k_B:  36.39159 [K], p_1: 3.88158 [A], shift/k_B:  -0.16654197 [K], tailcorrection: no
    CF2 -      H1 [LENNARD_JONES] p_0/k_B:  14.50330 [K], p_1: 3.78821 [A], shift/k_B:  -0.05736057 [K], tailcorrection: no
    CF2 -      O5 [LENNARD_JONES] p_0/k_B:  36.39159 [K], p_1: 3.88158 [A], shift/k_B:  -0.16654197 [K], tailcorrection: no
    CF2 -      O9 [LENNARD_JONES] p_0/k_B:  36.39159 [K], p_1: 3.88158 [A], shift/k_B:  -0.16654197 [K], tailcorrection: no
    CF2 -      O3 [LENNARD_JONES] p_0/k_B:  36.39159 [K], p_1: 3.88158 [A], shift/k_B:  -0.16654197 [K], tailcorrection: no
    CF2 -      O6 [LENNARD_JONES] p_0/k_B:  36.39159 [K], p_1: 3.88158 [A], shift/k_B:  -0.16654197 [K], tailcorrection: no
    CF2 -     O10 [LENNARD_JONES] p_0/k_B:  36.39159 [K], p_1: 3.88158 [A], shift/k_B:  -0.16654197 [K], tailcorrection: no
    CF2 -      O8 [LENNARD_JONES] p_0/k_B:  36.39159 [K], p_1: 3.88158 [A], shift/k_B:  -0.16654197 [K], tailcorrection: no
    CF2 -      N4 [LENNARD_JONES] p_0/k_B:  32.72771 [K], p_1: 3.99628 [A], shift/k_B:  -0.17833261 [K], tailcorrection: no
    CF2 -      H4 [LENNARD_JONES] p_0/k_B:  14.50330 [K], p_1: 3.78821 [A], shift/k_B:  -0.05736057 [K], tailcorrection: no
    CF2 -      N1 [LENNARD_JONES] p_0/k_B:  32.72771 [K], p_1: 3.99628 [A], shift/k_B:  -0.17833261 [K], tailcorrection: no
    CF2 -     H1A [LENNARD_JONES] p_0/k_B:  14.50330 [K], p_1: 3.78821 [A], shift/k_B:  -0.05736057 [K], tailcorrection: no
    CF2 -      N2 [LENNARD_JONES] p_0/k_B:  32.72771 [K], p_1: 3.99628 [A], shift/k_B:  -0.17833261 [K], tailcorrection: no
    CF2 -      N3 [LENNARD_JONES] p_0/k_B:  32.72771 [K], p_1: 3.99628 [A], shift/k_B:  -0.17833261 [K], tailcorrection: no
    CF2 -      C1 [LENNARD_JONES] p_0/k_B:  36.27734 [K], p_1: 4.10149 [A], shift/k_B:  -0.23097669 [K], tailcorrection: no
    CF2 -      C6 [LENNARD_JONES] p_0/k_B:  36.27734 [K], p_1: 4.10149 [A], shift/k_B:  -0.23097669 [K], tailcorrection: no
    CF2 -      C5 [LENNARD_JONES] p_0/k_B:  36.27734 [K], p_1: 4.10149 [A], shift/k_B:  -0.23097669 [K], tailcorrection: no
    CF2 -      C3 [LENNARD_JONES] p_0/k_B:  36.27734 [K], p_1: 4.10149 [A], shift/k_B:  -0.23097669 [K], tailcorrection: no
    CF2 -      H3 [LENNARD_JONES] p_0/k_B:  14.50330 [K], p_1: 3.78821 [A], shift/k_B:  -0.05736057 [K], tailcorrection: no
    CF2 -     C10 [LENNARD_JONES] p_0/k_B:  36.27734 [K], p_1: 4.10149 [A], shift/k_B:  -0.23097669 [K], tailcorrection: no
    CF2 -      C8 [LENNARD_JONES] p_0/k_B:  36.27734 [K], p_1: 4.10149 [A], shift/k_B:  -0.23097669 [K], tailcorrection: no
    CF2 -      H8 [LENNARD_JONES] p_0/k_B:  14.50330 [K], p_1: 3.78821 [A], shift/k_B:  -0.05736057 [K], tailcorrection: no
    CF2 -      C2 [LENNARD_JONES] p_0/k_B:  36.27734 [K], p_1: 4.10149 [A], shift/k_B:  -0.23097669 [K], tailcorrection: no
    CF2 -      C9 [LENNARD_JONES] p_0/k_B:  36.27734 [K], p_1: 4.10149 [A], shift/k_B:  -0.23097669 [K], tailcorrection: no
    CF2 -      C7 [LENNARD_JONES] p_0/k_B:  36.27734 [K], p_1: 4.10149 [A], shift/k_B:  -0.23097669 [K], tailcorrection: no
    CF2 -      C4 [LENNARD_JONES] p_0/k_B:  36.27734 [K], p_1: 4.10149 [A], shift/k_B:  -0.23097669 [K], tailcorrection: no
   CF21 -    CF21 [LENNARD_JONES] p_0/k_B:  27.50000 [K], p_1: 4.73000 [A], shift/k_B:  -0.41099847 [K], tailcorrection: no
   CF21 -      Co [LENNARD_JONES] p_0/k_B:  33.57827 [K], p_1: 4.31500 [A], shift/k_B:  -0.28971819 [K], tailcorrection: no
   CF21 -      Oc [LENNARD_JONES] p_0/k_B:  46.61008 [K], p_1: 3.89000 [A], shift/k_B:  -0.21609552 [K], tailcorrection: no
   CF21 -      Oh [LENNARD_JONES] p_0/k_B:  50.57173 [K], p_1: 3.87500 [A], shift/k_B:  -0.22909620 [K], tailcorrection: no
   CF21 -      Ho [ZERO_POTENTIAL]
   CF21 -      Ow [LENNARD_JONES] p_0/k_B:  36.39159 [K], p_1: 3.88158 [A], shift/k_B:  -0.16654197 [K], tailcorrection: no
   CF21 -      Hw [ZERO_POTENTIAL]
   CF21 -      He [LENNARD_JONES] p_0/k_B:  17.31329 [K], p_1: 3.68500 [A], shift/k_B:  -0.05802468 [K], tailcorrection: no
   CF21 -     Al2 [LENNARD_JONES] p_0/k_B:  65.49767 [K], p_1: 4.32052 [A], shift/k_B:  -0.56946944 [K], tailcorrection: no
   CF21 -     Al1 [LENNARD_JONES] p_0/k_B:  65.49767 [K], p_1: 4.32052 [A], shift/k_B:  -0.56946944 [K], tailcorrection: no
   CF21 -     Al3 [LENNARD_JONES] p_0/k_B:  65.49767 [K], p_1: 4.32052 [A], shift/k_B:  -0.56946944 [K], tailcorrection: no
   CF21 -      O4 [LENNARD_JONES] p_0/k_B:  36.39159 [K], p_1: 3.88158 [A], shift/k_B:  -0.16654197 [K], tailcorrection: no
   CF21 -      O2 [LENNARD_JONES] p_0/k_B:  36.39159 [K], p_1: 3.88158 [A], shift/k_B:  -0.16654197 [K], tailcorrection: no
   CF21 -      H2 [LENNARD_JONES] p_0/k_B:  14.50330 [K], p_1: 3.78821 [A], shift/k_B:  -0.05736057 [K], tailcorrection: no
   CF21 -      O7 [LENNARD_JONES] p_0/k_B:  36.39159 [K], p_1: 3.88158 [A], shift/k_B:  -0.16654197 [K], tailcorrection: no
   CF21 -      O1 [LENNARD_JONES] p_0/k_B:  36.39159 [K], p_1: 3.88158 [A], shift/k_B:  -0.16654197 [K], tailcorrection: no
   CF21 -      H1 [LENNARD_JONES] p_0/k_B:  14.50330 [K], p_1: 3.78821 [A], shift/k_B:  -0.05736057 [K], tailcorrection: no
   CF21 -      O5 [LENNARD_JONES] p_0/k_B:  36.39159 [K], p_1: 3.88158 [A], shift/k_B:  -0.16654197 [K], tailcorrection: no
   CF21 -      O9 [LENNARD_JONES] p_0/k_B:  36.39159 [K], p_1: 3.88158 [A], shift/k_B:  -0.16654197 [K], tailcorrection: no
   CF21 -      O3 [LENNARD_JONES] p_0/k_B:  36.39159 [K], p_1: 3.88158 [A], shift/k_B:  -0.16654197 [K], tailcorrection: no
   CF21 -      O6 [LENNARD_JONES] p_0/k_B:  36.39159 [K], p_1: 3.88158 [A], shift/k_B:  -0.16654197 [K], tailcorrection: no
   CF21 -     O10 [LENNARD_JONES] p_0/k_B:  36.39159 [K], p_1: 3.88158 [A], shift/k_B:  -0.16654197 [K], tailcorrection: no
   CF21 -      O8 [LENNARD_JONES] p_0/k_B:  36.39159 [K], p_1: 3.88158 [A], shift/k_B:  -0.16654197 [K], tailcorrection: no
   CF21 -      N4 [LENNARD_JONES] p_0/k_B:  32.72771 [K], p_1: 3.99628 [A], shift/k_B:  -0.17833261 [K], tailcorrection: no
   CF21 -      H4 [LENNARD_JONES] p_0/k_B:  14.50330 [K], p_1: 3.78821 [A], shift/k_B:  -0.05736057 [K], tailcorrection: no
   CF21 -      N1 [LENNARD_JONES] p_0/k_B:  32.72771 [K], p_1: 3.99628 [A], shift/k_B:  -0.17833261 [K], tailcorrection: no
   CF21 -     H1A [LENNARD_JONES] p_0/k_B:  14.50330 [K], p_1: 3.78821 [A], shift/k_B:  -0.05736057 [K], tailcorrection: no
   CF21 -      N2 [LENNARD_JONES] p_0/k_B:  32.72771 [K], p_1: 3.99628 [A], shift/k_B:  -0.17833261 [K], tailcorrection: no
   CF21 -      N3 [LENNARD_JONES] p_0/k_B:  32.72771 [K], p_1: 3.99628 [A], shift/k_B:  -0.17833261 [K], tailcorrection: no
   CF21 -      C1 [LENNARD_JONES] p_0/k_B:  36.27734 [K], p_1: 4.10149 [A], shift/k_B:  -0.23097669 [K], tailcorrection: no
   CF21 -      C6 [LENNARD_JONES] p_0/k_B:  36.27734 [K], p_1: 4.10149 [A], shift/k_B:  -0.23097669 [K], tailcorrection: no
   CF21 -      C5 [LENNARD_JONES] p_0/k_B:  36.27734 [K], p_1: 4.10149 [A], shift/k_B:  -0.23097669 [K], tailcorrection: no
   CF21 -      C3 [LENNARD_JONES] p_0/k_B:  36.27734 [K], p_1: 4.10149 [A], shift/k_B:  -0.23097669 [K], tailcorrection: no
   CF21 -      H3 [LENNARD_JONES] p_0/k_B:  14.50330 [K], p_1: 3.78821 [A], shift/k_B:  -0.05736057 [K], tailcorrection: no
   CF21 -     C10 [LENNARD_JONES] p_0/k_B:  36.27734 [K], p_1: 4.10149 [A], shift/k_B:  -0.23097669 [K], tailcorrection: no
   CF21 -      C8 [LENNARD_JONES] p_0/k_B:  36.27734 [K], p_1: 4.10149 [A], shift/k_B:  -0.23097669 [K], tailcorrection: no
   CF21 -      H8 [LENNARD_JONES] p_0/k_B:  14.50330 [K], p_1: 3.78821 [A], shift/k_B:  -0.05736057 [K], tailcorrection: no
   CF21 -      C2 [LENNARD_JONES] p_0/k_B:  36.27734 [K], p_1: 4.10149 [A], shift/k_B:  -0.23097669 [K], tailcorrection: no
   CF21 -      C9 [LENNARD_JONES] p_0/k_B:  36.27734 [K], p_1: 4.10149 [A], shift/k_B:  -0.23097669 [K], tailcorrection: no
   CF21 -      C7 [LENNARD_JONES] p_0/k_B:  36.27734 [K], p_1: 4.10149 [A], shift/k_B:  -0.23097669 [K], tailcorrection: no
   CF21 -      C4 [LENNARD_JONES] p_0/k_B:  36.27734 [K], p_1: 4.10149 [A], shift/k_B:  -0.23097669 [K], tailcorrection: no
     Co -      Co [LENNARD_JONES] p_0/k_B:  41.00000 [K], p_1: 3.90000 [A], shift/k_B:  -0.19303316 [K], tailcorrection: no
     Co -      Oc [LENNARD_JONES] p_0/k_B:  56.91221 [K], p_1: 3.47500 [A], shift/k_B:  -0.13416853 [K], tailcorrection: no
     Co -      Oh [LENNARD_JONES] p_0/k_B:  61.74949 [K], p_1: 3.46000 [A], shift/k_B:  -0.14184463 [K], tailcorrection: no
     Co -      Ho [ZERO_POTENTIAL]
     Co -      Ow [LENNARD_JONES] p_0/k_B:  44.43514 [K], p_1: 3.46657 [A], shift/k_B:  -0.10324053 [K], tailcorrection: no
     Co -      Hw [ZERO_POTENTIAL]
     Co -      He [LENNARD_JONES] p_0/k_B:  21.14001 [K], p_1: 3.27000 [A], shift/k_B:  -0.03460878 [K], tailcorrection: no
     Co -     Al2 [LENNARD_JONES] p_0/k_B:  79.97448 [K], p_1: 3.90552 [A], shift/k_B:  -0.37973798 [K], tailcorrection: no
     Co -     Al1 [LENNARD_JONES] p_0/k_B:  79.97448 [K], p_1: 3.90552 [A], shift/k_B:  -0.37973798 [K], tailcorrection: no
     Co -     Al3 [LENNARD_JONES] p_0/k_B:  79.97448 [K], p_1: 3.90552 [A], shift/k_B:  -0.37973798 [K], tailcorrection: no
     Co -      O4 [LENNARD_JONES] p_0/k_B:  44.43514 [K], p_1: 3.46657 [A], shift/k_B:  -0.10324053 [K], tailcorrection: no
     Co -      O2 [LENNARD_JONES] p_0/k_B:  44.43514 [K], p_1: 3.46657 [A], shift/k_B:  -0.10324053 [K], tailcorrection: no
     Co -      H2 [LENNARD_JONES] p_0/k_B:  17.70893 [K], p_1: 3.37321 [A], shift/k_B:  -0.03493098 [K], tailcorrection: no
     Co -      O7 [LENNARD_JONES] p_0/k_B:  44.43514 [K], p_1: 3.46657 [A], shift/k_B:  -0.10324053 [K], tailcorrection: no
     Co -      O1 [LENNARD_JONES] p_0/k_B:  44.43514 [K], p_1: 3.46657 [A], shift/k_B:  -0.10324053 [K], tailcorrection: no
     Co -      H1 [LENNARD_JONES] p_0/k_B:  17.70893 [K], p_1: 3.37321 [A], shift/k_B:  -0.03493098 [K], tailcorrection: no
     Co -      O5 [LENNARD_JONES] p_0/k_B:  44.43514 [K], p_1: 3.46657 [A], shift/k_B:  -0.10324053 [K], tailcorrection: no
     Co -      O9 [LENNARD_JONES] p_0/k_B:  44.43514 [K], p_1: 3.46657 [A], shift/k_B:  -0.10324053 [K], tailcorrection: no
     Co -      O3 [LENNARD_JONES] p_0/k_B:  44.43514 [K], p_1: 3.46657 [A], shift/k_B:  -0.10324053 [K], tailcorrection: no
     Co -      O6 [LENNARD_JONES] p_0/k_B:  44.43514 [K], p_1: 3.46657 [A], shift/k_B:  -0.10324053 [K], tailcorrection: no
     Co -     O10 [LENNARD_JONES] p_0/k_B:  44.43514 [K], p_1: 3.46657 [A], shift/k_B:  -0.10324053 [K], tailcorrection: no
     Co -      O8 [LENNARD_JONES] p_0/k_B:  44.43514 [K], p_1: 3.46657 [A], shift/k_B:  -0.10324053 [K], tailcorrection: no
     Co -      N4 [LENNARD_JONES] p_0/k_B:  39.96145 [K], p_1: 3.58128 [A], shift/k_B:  -0.11285906 [K], tailcorrection: no
     Co -      H4 [LENNARD_JONES] p_0/k_B:  17.70893 [K], p_1: 3.37321 [A], shift/k_B:  -0.03493098 [K], tailcorrection: no
     Co -      N1 [LENNARD_JONES] p_0/k_B:  39.96145 [K], p_1: 3.58128 [A], shift/k_B:  -0.11285906 [K], tailcorrection: no
     Co -     H1A [LENNARD_JONES] p_0/k_B:  17.70893 [K], p_1: 3.37321 [A], shift/k_B:  -0.03493098 [K], tailcorrection: no
     Co -      N2 [LENNARD_JONES] p_0/k_B:  39.96145 [K], p_1: 3.58128 [A], shift/k_B:  -0.11285906 [K], tailcorrection: no
     Co -      N3 [LENNARD_JONES] p_0/k_B:  39.96145 [K], p_1: 3.58128 [A], shift/k_B:  -0.11285906 [K], tailcorrection: no
     Co -      C1 [LENNARD_JONES] p_0/k_B:  44.29565 [K], p_1: 3.68649 [A], shift/k_B:  -0.14881620 [K], tailcorrection: no
     Co -      C6 [LENNARD_JONES] p_0/k_B:  44.29565 [K], p_1: 3.68649 [A], shift/k_B:  -0.14881620 [K], tailcorrection: no
     Co -      C5 [LENNARD_JONES] p_0/k_B:  44.29565 [K], p_1: 3.68649 [A], shift/k_B:  -0.14881620 [K], tailcorrection: no
     Co -      C3 [LENNARD_JONES] p_0/k_B:  44.29565 [K], p_1: 3.68649 [A], shift/k_B:  -0.14881620 [K], tailcorrection: no
     Co -      H3 [LENNARD_JONES] p_0/k_B:  17.70893 [K], p_1: 3.37321 [A], shift/k_B:  -0.03493098 [K], tailcorrection: no
     Co -     C10 [LENNARD_JONES] p_0/k_B:  44.29565 [K], p_1: 3.68649 [A], shift/k_B:  -0.14881620 [K], tailcorrection: no
     Co -      C8 [LENNARD_JONES] p_0/k_B:  44.29565 [K], p_1: 3.68649 [A], shift/k_B:  -0.14881620 [K], tailcorrection: no
     Co -      H8 [LENNARD_JONES] p_0/k_B:  17.70893 [K], p_1: 3.37321 [A], shift/k_B:  -0.03493098 [K], tailcorrection: no
     Co -      C2 [LENNARD_JONES] p_0/k_B:  44.29565 [K], p_1: 3.68649 [A], shift/k_B:  -0.14881620 [K], tailcorrection: no
     Co -      C9 [LENNARD_JONES] p_0/k_B:  44.29565 [K], p_1: 3.68649 [A], shift/k_B:  -0.14881620 [K], tailcorrection: no
     Co -      C7 [LENNARD_JONES] p_0/k_B:  44.29565 [K], p_1: 3.68649 [A], shift/k_B:  -0.14881620 [K], tailcorrection: no
     Co -      C4 [LENNARD_JONES] p_0/k_B:  44.29565 [K], p_1: 3.68649 [A], shift/k_B:  -0.14881620 [K], tailcorrection: no
     Oc -      Oc [LENNARD_JONES] p_0/k_B:  79.00000 [K], p_1: 3.05000 [A], shift/k_B:  -0.08516900 [K], tailcorrection: no
     Oc -      Oh [LENNARD_JONES] p_0/k_B:  85.71464 [K], p_1: 3.03500 [A], shift/k_B:  -0.08971520 [K], tailcorrection: no
     Oc -      Ho [ZERO_POTENTIAL]
     Oc -      Ow [LENNARD_JONES] p_0/k_B:  61.68055 [K], p_1: 3.04157 [A], shift/k_B:  -0.06540286 [K], tailcorrection: no
     Oc -      Hw [ZERO_POTENTIAL]
     Oc -      He [LENNARD_JONES] p_0/k_B:  29.34451 [K], p_1: 2.84500 [A], shift/k_B:  -0.02084087 [K], tailcorrection: no
     Oc -     Al2 [LENNARD_JONES] p_0/k_B: 111.01280 [K], p_1: 3.48053 [A], shift/k_B:  -0.26421379 [K], tailcorrection: no
     Oc -     Al1 [LENNARD_JONES] p_0/k_B: 111.01280 [K], p_1: 3.48053 [A], shift/k_B:  -0.26421379 [K], tailcorrection: no
     Oc -     Al3 [LENNARD_JONES] p_0/k_B: 111.01280 [K], p_1: 3.48053 [A], shift/k_B:  -0.26421379 [K], tailcorrection: no
     Oc -      O4 [LENNARD_JONES] p_0/k_B:  61.68055 [K], p_1: 3.04157 [A], shift/k_B:  -0.06540286 [K], tailcorrection: no
     Oc -      O2 [LENNARD_JONES] p_0/k_B:  61.68055 [K], p_1: 3.04157 [A], shift/k_B:  -0.06540286 [K], tailcorrection: no
     Oc -      H2 [LENNARD_JONES] p_0/k_B:  24.58181 [K], p_1: 2.94821 [A], shift/k_B:  -0.02161929 [K], tailcorrection: no
     Oc -      O7 [LENNARD_JONES] p_0/k_B:  61.68055 [K], p_1: 3.04157 [A], shift/k_B:  -0.06540286 [K], tailcorrection: no
     Oc -      O1 [LENNARD_JONES] p_0/k_B:  61.68055 [K], p_1: 3.04157 [A], shift/k_B:  -0.06540286 [K], tailcorrection: no
     Oc -      H1 [LENNARD_JONES] p_0/k_B:  24.58181 [K], p_1: 2.94821 [A], shift/k_B:  -0.02161929 [K], tailcorrection: no
     Oc -      O5 [LENNARD_JONES] p_0/k_B:  61.68055 [K], p_1: 3.04157 [A], shift/k_B:  -0.06540286 [K], tailcorrection: no
     Oc -      O9 [LENNARD_JONES] p_0/k_B:  61.68055 [K], p_1: 3.04157 [A], shift/k_B:  -0.06540286 [K], tailcorrection: no
     Oc -      O3 [LENNARD_JONES] p_0/k_B:  61.68055 [K], p_1: 3.04157 [A], shift/k_B:  -0.06540286 [K], tailcorrection: no
     Oc -      O6 [LENNARD_JONES] p_0/k_B:  61.68055 [K], p_1: 3.04157 [A], shift/k_B:  -0.06540286 [K], tailcorrection: no
     Oc -     O10 [LENNARD_JONES] p_0/k_B:  61.68055 [K], p_1: 3.04157 [A], shift/k_B:  -0.06540286 [K], tailcorrection: no
     Oc -      O8 [LENNARD_JONES] p_0/k_B:  61.68055 [K], p_1: 3.04157 [A], shift/k_B:  -0.06540286 [K], tailcorrection: no
     Oc -      N4 [LENNARD_JONES] p_0/k_B:  55.47059 [K], p_1: 3.15628 [A], shift/k_B:  -0.07344203 [K], tailcorrection: no
     Oc -      H4 [LENNARD_JONES] p_0/k_B:  24.58181 [K], p_1: 2.94821 [A], shift/k_B:  -0.02161929 [K], tailcorrection: no
     Oc -      N1 [LENNARD_JONES] p_0/k_B:  55.47059 [K], p_1: 3.15628 [A], shift/k_B:  -0.07344203 [K], tailcorrection: no
     Oc -     H1A [LENNARD_JONES] p_0/k_B:  24.58181 [K], p_1: 2.94821 [A], shift/k_B:  -0.02161929 [K], tailcorrection: no
     Oc -      N2 [LENNARD_JONES] p_0/k_B:  55.47059 [K], p_1: 3.15628 [A], shift/k_B:  -0.07344203 [K], tailcorrection: no
     Oc -      N3 [LENNARD_JONES] p_0/k_B:  55.47059 [K], p_1: 3.15628 [A], shift/k_B:  -0.07344203 [K], tailcorrection: no
     Oc -      C1 [LENNARD_JONES] p_0/k_B:  61.48691 [K], p_1: 3.26150 [A], shift/k_B:  -0.09910153 [K], tailcorrection: no
     Oc -      C6 [LENNARD_JONES] p_0/k_B:  61.48691 [K], p_1: 3.26150 [A], shift/k_B:  -0.09910153 [K], tailcorrection: no
     Oc -      C5 [LENNARD_JONES] p_0/k_B:  61.48691 [K], p_1: 3.26150 [A], shift/k_B:  -0.09910153 [K], tailcorrection: no
     Oc -      C3 [LENNARD_JONES] p_0/k_B:  61.48691 [K], p_1: 3.26150 [A], shift/k_B:  -0.09910153 [K], tailcorrection: no
     Oc -      H3 [LENNARD_JONES] p_0/k_B:  24.58181 [K], p_1: 2.94821 [A], shift/k_B:  -0.02161929 [K], tailcorrection: no
     Oc -     C10 [LENNARD_JONES] p_0/k_B:  61.48691 [K], p_1: 3.26150 [A], shift/k_B:  -0.09910153 [K], tailcorrection: no
     Oc -      C8 [LENNARD_JONES] p_0/k_B:  61.48691 [K], p_1: 3.26150 [A], shift/k_B:  -0.09910153 [K], tailcorrection: no
     Oc -      H8 [LENNARD_JONES] p_0/k_B:  24.58181 [K], p_1: 2.94821 [A], shift/k_B:  -0.02161929 [K], tailcorrection: no
     Oc -      C2 [LENNARD_JONES] p_0/k_B:  61.48691 [K], p_1: 3.26150 [A], shift/k_B:  -0.09910153 [K], tailcorrection: no
     Oc -      C9 [LENNARD_JONES] p_0/k_B:  61.48691 [K], p_1: 3.26150 [A], shift/k_B:  -0.09910153 [K], tailcorrection: no
     Oc -      C7 [LENNARD_JONES] p_0/k_B:  61.48691 [K], p_1: 3.26150 [A], shift/k_B:  -0.09910153 [K], tailcorrection: no
     Oc -      C4 [LENNARD_JONES] p_0/k_B:  61.48691 [K], p_1: 3.26150 [A], shift/k_B:  -0.09910153 [K], tailcorrection: no
     Oh -      Oh [LENNARD_JONES] p_0/k_B:  93.00000 [K], p_1: 3.02000 [A], shift/k_B:  -0.09449020 [K], tailcorrection: no
     Oh -      Ho [ZERO_POTENTIAL]
     Oh -      Ow [LENNARD_JONES] p_0/k_B:  66.92311 [K], p_1: 3.02658 [A], shift/k_B:  -0.06888830 [K], tailcorrection: no
     Oh -      Hw [ZERO_POTENTIAL]
     Oh -      He [LENNARD_JONES] p_0/k_B:  31.83866 [K], p_1: 2.83000 [A], shift/k_B:  -0.02190641 [K], tailcorrection: no
     Oh -     Al2 [LENNARD_JONES] p_0/k_B: 120.44839 [K], p_1: 3.46552 [A], shift/k_B:  -0.27934165 [K], tailcorrection: no
     Oh -     Al1 [LENNARD_JONES] p_0/k_B: 120.44839 [K], p_1: 3.46552 [A], shift/k_B:  -0.27934165 [K], tailcorrection: no
     Oh -     Al3 [LENNARD_JONES] p_0/k_B: 120.44839 [K], p_1: 3.46552 [A], shift/k_B:  -0.27934165 [K], tailcorrection: no
     Oh -      O4 [LENNARD_JONES] p_0/k_B:  66.92311 [K], p_1: 3.02658 [A], shift/k_B:  -0.06888830 [K], tailcorrection: no
     Oh -      O2 [LENNARD_JONES] p_0/k_B:  66.92311 [K], p_1: 3.02658 [A], shift/k_B:  -0.06888830 [K], tailcorrection: no
     Oh -      H2 [LENNARD_JONES] p_0/k_B:  26.67115 [K], p_1: 2.93321 [A], shift/k_B:  -0.02274996 [K], tailcorrection: no
     Oh -      O7 [LENNARD_JONES] p_0/k_B:  66.92311 [K], p_1: 3.02658 [A], shift/k_B:  -0.06888830 [K], tailcorrection: no
     Oh -      O1 [LENNARD_JONES] p_0/k_B:  66.92311 [K], p_1: 3.02658 [A], shift/k_B:  -0.06888830 [K], tailcorrection: no
     Oh -      H1 [LENNARD_JONES] p_0/k_B:  26.67115 [K], p_1: 2.93321 [A], shift/k_B:  -0.02274996 [K], tailcorrection: no
     Oh -      O5 [LENNARD_JONES] p_0/k_B:  66.92311 [K], p_1: 3.02658 [A], shift/k_B:  -0.06888830 [K], tailcorrection: no
     Oh -      O9 [LENNARD_JONES] p_0/k_B:  66.92311 [K], p_1: 3.02658 [A], shift/k_B:  -0.06888830 [K], tailcorrection: no
     Oh -      O3 [LENNARD_JONES] p_0/k_B:  66.92311 [K], p_1: 3.02658 [A], shift/k_B:  -0.06888830 [K], tailcorrection: no
     Oh -      O6 [LENNARD_JONES] p_0/k_B:  66.92311 [K], p_1: 3.02658 [A], shift/k_B:  -0.06888830 [K], tailcorrection: no
     Oh -     O10 [LENNARD_JONES] p_0/k_B:  66.92311 [K], p_1: 3.02658 [A], shift/k_B:  -0.06888830 [K], tailcorrection: no
     Oh -      O8 [LENNARD_JONES] p_0/k_B:  66.92311 [K], p_1: 3.02658 [A], shift/k_B:  -0.06888830 [K], tailcorrection: no
     Oh -      N4 [LENNARD_JONES] p_0/k_B:  60.18534 [K], p_1: 3.14128 [A], shift/k_B:  -0.07743965 [K], tailcorrection: no
     Oh -      H4 [LENNARD_JONES] p_0/k_B:  26.67115 [K], p_1: 2.93321 [A], shift/k_B:  -0.02274996 [K], tailcorrection: no
     Oh -      N1 [LENNARD_JONES] p_0/k_B:  60.18534 [K], p_1: 3.14128 [A], shift/k_B:  -0.07743965 [K], tailcorrection: no
     Oh -     H1A [LENNARD_JONES] p_0/k_B:  26.67115 [K], p_1: 2.93321 [A], shift/k_B:  -0.02274996 [K], tailcorrection: no
     Oh -      N2 [LENNARD_JONES] p_0/k_B:  60.18534 [K], p_1: 3.14128 [A], shift/k_B:  -0.07743965 [K], tailcorrection: no
     Oh -      N3 [LENNARD_JONES] p_0/k_B:  60.18534 [K], p_1: 3.14128 [A], shift/k_B:  -0.07743965 [K], tailcorrection: no
     Oh -      C1 [LENNARD_JONES] p_0/k_B:  66.71302 [K], p_1: 3.24649 [A], shift/k_B:  -0.10459266 [K], tailcorrection: no
     Oh -      C6 [LENNARD_JONES] p_0/k_B:  66.71302 [K], p_1: 3.24649 [A], shift/k_B:  -0.10459266 [K], tailcorrection: no
     Oh -      C5 [LENNARD_JONES] p_0/k_B:  66.71302 [K], p_1: 3.24649 [A], shift/k_B:  -0.10459266 [K], tailcorrection: no
     Oh -      C3 [LENNARD_JONES] p_0/k_B:  66.71302 [K], p_1: 3.24649 [A], shift/k_B:  -0.10459266 [K], tailcorrection: no
     Oh -      H3 [LENNARD_JONES] p_0/k_B:  26.67115 [K], p_1: 2.93321 [A], shift/k_B:  -0.02274996 [K], tailcorrection: no
     Oh -     C10 [LENNARD_JONES] p_0/k_B:  66.71302 [K], p_1: 3.24649 [A], shift/k_B:  -0.10459266 [K], tailcorrection: no
     Oh -      C8 [LENNARD_JONES] p_0/k_B:  66.71302 [K], p_1: 3.24649 [A], shift/k_B:  -0.10459266 [K], tailcorrection: no
     Oh -      H8 [LENNARD_JONES] p_0/k_B:  26.67115 [K], p_1: 2.93321 [A], shift/k_B:  -0.02274996 [K], tailcorrection: no
     Oh -      C2 [LENNARD_JONES] p_0/k_B:  66.71302 [K], p_1: 3.24649 [A], shift/k_B:  -0.10459266 [K], tailcorrection: no
     Oh -      C9 [LENNARD_JONES] p_0/k_B:  66.71302 [K], p_1: 3.24649 [A], shift/k_B:  -0.10459266 [K], tailcorrection: no
     Oh -      C7 [LENNARD_JONES] p_0/k_B:  66.71302 [K], p_1: 3.24649 [A], shift/k_B:  -0.10459266 [K], tailcorrection: no
     Oh -      C4 [LENNARD_JONES] p_0/k_B:  66.71302 [K], p_1: 3.24649 [A], shift/k_B:  -0.10459266 [K], tailcorrection: no
     Ho -      Ho [ZERO_POTENTIAL]
     Ho -      Ow [ZERO_POTENTIAL]
     Ho -      Hw [ZERO_POTENTIAL]
     Ho -      He [ZERO_POTENTIAL]
     Ho -     Al2 [ZERO_POTENTIAL]
     Ho -     Al1 [ZERO_POTENTIAL]
     Ho -     Al3 [ZERO_POTENTIAL]
     Ho -      O4 [ZERO_POTENTIAL]
     Ho -      O2 [ZERO_POTENTIAL]
     Ho -      H2 [ZERO_POTENTIAL]
     Ho -      O7 [ZERO_POTENTIAL]
     Ho -      O1 [ZERO_POTENTIAL]
     Ho -      H1 [ZERO_POTENTIAL]
     Ho -      O5 [ZERO_POTENTIAL]
     Ho -      O9 [ZERO_POTENTIAL]
     Ho -      O3 [ZERO_POTENTIAL]
     Ho -      O6 [ZERO_POTENTIAL]
     Ho -     O10 [ZERO_POTENTIAL]
     Ho -      O8 [ZERO_POTENTIAL]
     Ho -      N4 [ZERO_POTENTIAL]
     Ho -      H4 [ZERO_POTENTIAL]
     Ho -      N1 [ZERO_POTENTIAL]
     Ho -     H1A [ZERO_POTENTIAL]
     Ho -      N2 [ZERO_POTENTIAL]
     Ho -      N3 [ZERO_POTENTIAL]
     Ho -      C1 [ZERO_POTENTIAL]
     Ho -      C6 [ZERO_POTENTIAL]
     Ho -      C5 [ZERO_POTENTIAL]
     Ho -      C3 [ZERO_POTENTIAL]
     Ho -      H3 [ZERO_POTENTIAL]
     Ho -     C10 [ZERO_POTENTIAL]
     Ho -      C8 [ZERO_POTENTIAL]
     Ho -      H8 [ZERO_POTENTIAL]
     Ho -      C2 [ZERO_POTENTIAL]
     Ho -      C9 [ZERO_POTENTIAL]
     Ho -      C7 [ZERO_POTENTIAL]
     Ho -      C4 [ZERO_POTENTIAL]
     Ow -      Ow [LENNARD_JONES] p_0/k_B:  48.15810 [K], p_1: 3.03315 [A], shift/k_B:  -0.05022176 [K], tailcorrection: no
     Ow -      Hw [ZERO_POTENTIAL]
     Ow -      He [LENNARD_JONES] p_0/k_B:  22.91120 [K], p_1: 2.83657 [A], shift/k_B:  -0.01598491 [K], tailcorrection: no
     Ow -     Al2 [LENNARD_JONES] p_0/k_B:  86.67507 [K], p_1: 3.47210 [A], shift/k_B:  -0.20331300 [K], tailcorrection: no
     Ow -     Al1 [LENNARD_JONES] p_0/k_B:  86.67507 [K], p_1: 3.47210 [A], shift/k_B:  -0.20331300 [K], tailcorrection: no
     Ow -     Al3 [LENNARD_JONES] p_0/k_B:  86.67507 [K], p_1: 3.47210 [A], shift/k_B:  -0.20331300 [K], tailcorrection: no
     Ow -      O4 [LENNARD_JONES] p_0/k_B:  48.15810 [K], p_1: 3.03315 [A], shift/k_B:  -0.05022176 [K], tailcorrection: no
     Ow -      O2 [LENNARD_JONES] p_0/k_B:  48.15810 [K], p_1: 3.03315 [A], shift/k_B:  -0.05022176 [K], tailcorrection: no
     Ow -      H2 [LENNARD_JONES] p_0/k_B:  19.19265 [K], p_1: 2.93979 [A], shift/k_B:  -0.01659232 [K], tailcorrection: no
     Ow -      O7 [LENNARD_JONES] p_0/k_B:  48.15810 [K], p_1: 3.03315 [A], shift/k_B:  -0.05022176 [K], tailcorrection: no
     Ow -      O1 [LENNARD_JONES] p_0/k_B:  48.15810 [K], p_1: 3.03315 [A], shift/k_B:  -0.05022176 [K], tailcorrection: no
     Ow -      H1 [LENNARD_JONES] p_0/k_B:  19.19265 [K], p_1: 2.93979 [A], shift/k_B:  -0.01659232 [K], tailcorrection: no
     Ow -      O5 [LENNARD_JONES] p_0/k_B:  48.15810 [K], p_1: 3.03315 [A], shift/k_B:  -0.05022176 [K], tailcorrection: no
     Ow -      O9 [LENNARD_JONES] p_0/k_B:  48.15810 [K], p_1: 3.03315 [A], shift/k_B:  -0.05022176 [K], tailcorrection: no
     Ow -      O3 [LENNARD_JONES] p_0/k_B:  48.15810 [K], p_1: 3.03315 [A], shift/k_B:  -0.05022176 [K], tailcorrection: no
     Ow -      O6 [LENNARD_JONES] p_0/k_B:  48.15810 [K], p_1: 3.03315 [A], shift/k_B:  -0.05022176 [K], tailcorrection: no
     Ow -     O10 [LENNARD_JONES] p_0/k_B:  48.15810 [K], p_1: 3.03315 [A], shift/k_B:  -0.05022176 [K], tailcorrection: no
     Ow -      O8 [LENNARD_JONES] p_0/k_B:  48.15810 [K], p_1: 3.03315 [A], shift/k_B:  -0.05022176 [K], tailcorrection: no
     Ow -      N4 [LENNARD_JONES] p_0/k_B:  43.30958 [K], p_1: 3.14785 [A], shift/k_B:  -0.05642912 [K], tailcorrection: no
     Ow -      H4 [LENNARD_JONES] p_0/k_B:  19.19265 [K], p_1: 2.93979 [A], shift/k_B:  -0.01659232 [K], tailcorrection: no
     Ow -      N1 [LENNARD_JONES] p_0/k_B:  43.30958 [K], p_1: 3.14785 [A], shift/k_B:  -0.05642912 [K], tailcorrection: no
     Ow -     H1A [LENNARD_JONES] p_0/k_B:  19.19265 [K], p_1: 2.93979 [A], shift/k_B:  -0.01659232 [K], tailcorrection: no
     Ow -      N2 [LENNARD_JONES] p_0/k_B:  43.30958 [K], p_1: 3.14785 [A], shift/k_B:  -0.05642912 [K], tailcorrection: no
     Ow -      N3 [LENNARD_JONES] p_0/k_B:  43.30958 [K], p_1: 3.14785 [A], shift/k_B:  -0.05642912 [K], tailcorrection: no
     Ow -      C1 [LENNARD_JONES] p_0/k_B:  48.00691 [K], p_1: 3.25307 [A], shift/k_B:  -0.07618410 [K], tailcorrection: no
     Ow -      C6 [LENNARD_JONES] p_0/k_B:  48.00691 [K], p_1: 3.25307 [A], shift/k_B:  -0.07618410 [K], tailcorrection: no
     Ow -      C5 [LENNARD_JONES] p_0/k_B:  48.00691 [K], p_1: 3.25307 [A], shift/k_B:  -0.07618410 [K], tailcorrection: no
     Ow -      C3 [LENNARD_JONES] p_0/k_B:  48.00691 [K], p_1: 3.25307 [A], shift/k_B:  -0.07618410 [K], tailcorrection: no
     Ow -      H3 [LENNARD_JONES] p_0/k_B:  19.19265 [K], p_1: 2.93979 [A], shift/k_B:  -0.01659232 [K], tailcorrection: no
     Ow -     C10 [LENNARD_JONES] p_0/k_B:  48.00691 [K], p_1: 3.25307 [A], shift/k_B:  -0.07618410 [K], tailcorrection: no
     Ow -      C8 [LENNARD_JONES] p_0/k_B:  48.00691 [K], p_1: 3.25307 [A], shift/k_B:  -0.07618410 [K], tailcorrection: no
     Ow -      H8 [LENNARD_JONES] p_0/k_B:  19.19265 [K], p_1: 2.93979 [A], shift/k_B:  -0.01659232 [K], tailcorrection: no
     Ow -      C2 [LENNARD_JONES] p_0/k_B:  48.00691 [K], p_1: 3.25307 [A], shift/k_B:  -0.07618410 [K], tailcorrection: no
     Ow -      C9 [LENNARD_JONES] p_0/k_B:  48.00691 [K], p_1: 3.25307 [A], shift/k_B:  -0.07618410 [K], tailcorrection: no
     Ow -      C7 [LENNARD_JONES] p_0/k_B:  48.00691 [K], p_1: 3.25307 [A], shift/k_B:  -0.07618410 [K], tailcorrection: no
     Ow -      C4 [LENNARD_JONES] p_0/k_B:  48.00691 [K], p_1: 3.25307 [A], shift/k_B:  -0.07618410 [K], tailcorrection: no
     Hw -      Hw [ZERO_POTENTIAL]
     Hw -      He [ZERO_POTENTIAL]
     Hw -     Al2 [ZERO_POTENTIAL]
     Hw -     Al1 [ZERO_POTENTIAL]
     Hw -     Al3 [ZERO_POTENTIAL]
     Hw -      O4 [ZERO_POTENTIAL]
     Hw -      O2 [ZERO_POTENTIAL]
     Hw -      H2 [ZERO_POTENTIAL]
     Hw -      O7 [ZERO_POTENTIAL]
     Hw -      O1 [ZERO_POTENTIAL]
     Hw -      H1 [ZERO_POTENTIAL]
     Hw -      O5 [ZERO_POTENTIAL]
     Hw -      O9 [ZERO_POTENTIAL]
     Hw -      O3 [ZERO_POTENTIAL]
     Hw -      O6 [ZERO_POTENTIAL]
     Hw -     O10 [ZERO_POTENTIAL]
     Hw -      O8 [ZERO_POTENTIAL]
     Hw -      N4 [ZERO_POTENTIAL]
     Hw -      H4 [ZERO_POTENTIAL]
     Hw -      N1 [ZERO_POTENTIAL]
     Hw -     H1A [ZERO_POTENTIAL]
     Hw -      N2 [ZERO_POTENTIAL]
     Hw -      N3 [ZERO_POTENTIAL]
     Hw -      C1 [ZERO_POTENTIAL]
     Hw -      C6 [ZERO_POTENTIAL]
     Hw -      C5 [ZERO_POTENTIAL]
     Hw -      C3 [ZERO_POTENTIAL]
     Hw -      H3 [ZERO_POTENTIAL]
     Hw -     C10 [ZERO_POTENTIAL]
     Hw -      C8 [ZERO_POTENTIAL]
     Hw -      H8 [ZERO_POTENTIAL]
     Hw -      C2 [ZERO_POTENTIAL]
     Hw -      C9 [ZERO_POTENTIAL]
     Hw -      C7 [ZERO_POTENTIAL]
     Hw -      C4 [ZERO_POTENTIAL]
     He -      He [LENNARD_JONES] p_0/k_B:  10.90000 [K], p_1: 2.64000 [A], shift/k_B:  -0.00494280 [K], tailcorrection: no
     He -     Al2 [LENNARD_JONES] p_0/k_B:  41.23564 [K], p_1: 3.27553 [A], shift/k_B:  -0.06819478 [K], tailcorrection: no
     He -     Al1 [LENNARD_JONES] p_0/k_B:  41.23564 [K], p_1: 3.27553 [A], shift/k_B:  -0.06819478 [K], tailcorrection: no
     He -     Al3 [LENNARD_JONES] p_0/k_B:  41.23564 [K], p_1: 3.27553 [A], shift/k_B:  -0.06819478 [K], tailcorrection: no
     He -      O4 [LENNARD_JONES] p_0/k_B:  22.91120 [K], p_1: 2.83657 [A], shift/k_B:  -0.01598491 [K], tailcorrection: no
     He -      O2 [LENNARD_JONES] p_0/k_B:  22.91120 [K], p_1: 2.83657 [A], shift/k_B:  -0.01598491 [K], tailcorrection: no
     He -      H2 [LENNARD_JONES] p_0/k_B:   9.13090 [K], p_1: 2.74321 [A], shift/k_B:  -0.00521169 [K], tailcorrection: no
     He -      O7 [LENNARD_JONES] p_0/k_B:  22.91120 [K], p_1: 2.83657 [A], shift/k_B:  -0.01598491 [K], tailcorrection: no
     He -      O1 [LENNARD_JONES] p_0/k_B:  22.91120 [K], p_1: 2.83657 [A], shift/k_B:  -0.01598491 [K], tailcorrection: no
     He -      H1 [LENNARD_JONES] p_0/k_B:   9.13090 [K], p_1: 2.74321 [A], shift/k_B:  -0.00521169 [K], tailcorrection: no
     He -      O5 [LENNARD_JONES] p_0/k_B:  22.91120 [K], p_1: 2.83657 [A], shift/k_B:  -0.01598491 [K], tailcorrection: no
     He -      O9 [LENNARD_JONES] p_0/k_B:  22.91120 [K], p_1: 2.83657 [A], shift/k_B:  -0.01598491 [K], tailcorrection: no
     He -      O3 [LENNARD_JONES] p_0/k_B:  22.91120 [K], p_1: 2.83657 [A], shift/k_B:  -0.01598491 [K], tailcorrection: no
     He -      O6 [LENNARD_JONES] p_0/k_B:  22.91120 [K], p_1: 2.83657 [A], shift/k_B:  -0.01598491 [K], tailcorrection: no
     He -     O10 [LENNARD_JONES] p_0/k_B:  22.91120 [K], p_1: 2.83657 [A], shift/k_B:  -0.01598491 [K], tailcorrection: no
     He -      O8 [LENNARD_JONES] p_0/k_B:  22.91120 [K], p_1: 2.83657 [A], shift/k_B:  -0.01598491 [K], tailcorrection: no
     He -      N4 [LENNARD_JONES] p_0/k_B:  20.60452 [K], p_1: 2.95128 [A], shift/k_B:  -0.01823482 [K], tailcorrection: no
     He -      H4 [LENNARD_JONES] p_0/k_B:   9.13090 [K], p_1: 2.74321 [A], shift/k_B:  -0.00521169 [K], tailcorrection: no
     He -      N1 [LENNARD_JONES] p_0/k_B:  20.60452 [K], p_1: 2.95128 [A], shift/k_B:  -0.01823482 [K], tailcorrection: no
     He -     H1A [LENNARD_JONES] p_0/k_B:   9.13090 [K], p_1: 2.74321 [A], shift/k_B:  -0.00521169 [K], tailcorrection: no
     He -      N2 [LENNARD_JONES] p_0/k_B:  20.60452 [K], p_1: 2.95128 [A], shift/k_B:  -0.01823482 [K], tailcorrection: no
     He -      N3 [LENNARD_JONES] p_0/k_B:  20.60452 [K], p_1: 2.95128 [A], shift/k_B:  -0.01823482 [K], tailcorrection: no
     He -      C1 [LENNARD_JONES] p_0/k_B:  22.83928 [K], p_1: 3.05649 [A], shift/k_B:  -0.02493896 [K], tailcorrection: no
     He -      C6 [LENNARD_JONES] p_0/k_B:  22.83928 [K], p_1: 3.05649 [A], shift/k_B:  -0.02493896 [K], tailcorrection: no
     He -      C5 [LENNARD_JONES] p_0/k_B:  22.83928 [K], p_1: 3.05649 [A], shift/k_B:  -0.02493896 [K], tailcorrection: no
     He -      C3 [LENNARD_JONES] p_0/k_B:  22.83928 [K], p_1: 3.05649 [A], shift/k_B:  -0.02493896 [K], tailcorrection: no
     He -      H3 [LENNARD_JONES] p_0/k_B:   9.13090 [K], p_1: 2.74321 [A], shift/k_B:  -0.00521169 [K], tailcorrection: no
     He -     C10 [LENNARD_JONES] p_0/k_B:  22.83928 [K], p_1: 3.05649 [A], shift/k_B:  -0.02493896 [K], tailcorrection: no
     He -      C8 [LENNARD_JONES] p_0/k_B:  22.83928 [K], p_1: 3.05649 [A], shift/k_B:  -0.02493896 [K], tailcorrection: no
     He -      H8 [LENNARD_JONES] p_0/k_B:   9.13090 [K], p_1: 2.74321 [A], shift/k_B:  -0.00521169 [K], tailcorrection: no
     He -      C2 [LENNARD_JONES] p_0/k_B:  22.83928 [K], p_1: 3.05649 [A], shift/k_B:  -0.02493896 [K], tailcorrection: no
     He -      C9 [LENNARD_JONES] p_0/k_B:  22.83928 [K], p_1: 3.05649 [A], shift/k_B:  -0.02493896 [K], tailcorrection: no
     He -      C7 [LENNARD_JONES] p_0/k_B:  22.83928 [K], p_1: 3.05649 [A], shift/k_B:  -0.02493896 [K], tailcorrection: no
     He -      C4 [LENNARD_JONES] p_0/k_B:  22.83928 [K], p_1: 3.05649 [A], shift/k_B:  -0.02493896 [K], tailcorrection: no
    Al2 -     Al2 [LENNARD_JONES] p_0/k_B: 155.99800 [K], p_1: 3.91105 [A], shift/k_B:  -0.74701771 [K], tailcorrection: no
    Al2 -     Al1 [LENNARD_JONES] p_0/k_B: 155.99800 [K], p_1: 3.91105 [A], shift/k_B:  -0.74701771 [K], tailcorrection: no
    Al2 -     Al3 [LENNARD_JONES] p_0/k_B: 155.99800 [K], p_1: 3.91105 [A], shift/k_B:  -0.74701771 [K], tailcorrection: no
    Al2 -      O4 [LENNARD_JONES] p_0/k_B:  86.67507 [K], p_1: 3.47210 [A], shift/k_B:  -0.20331300 [K], tailcorrection: no
    Al2 -      O2 [LENNARD_JONES] p_0/k_B:  86.67507 [K], p_1: 3.47210 [A], shift/k_B:  -0.20331300 [K], tailcorrection: no
    Al2 -      H2 [LENNARD_JONES] p_0/k_B:  34.54298 [K], p_1: 3.37873 [A], shift/k_B:  -0.06880828 [K], tailcorrection: no
    Al2 -      O7 [LENNARD_JONES] p_0/k_B:  86.67507 [K], p_1: 3.47210 [A], shift/k_B:  -0.20331300 [K], tailcorrection: no
    Al2 -      O1 [LENNARD_JONES] p_0/k_B:  86.67507 [K], p_1: 3.47210 [A], shift/k_B:  -0.20331300 [K], tailcorrection: no
    Al2 -      H1 [LENNARD_JONES] p_0/k_B:  34.54298 [K], p_1: 3.37873 [A], shift/k_B:  -0.06880828 [K], tailcorrection: no
    Al2 -      O5 [LENNARD_JONES] p_0/k_B:  86.67507 [K], p_1: 3.47210 [A], shift/k_B:  -0.20331300 [K], tailcorrection: no
    Al2 -      O9 [LENNARD_JONES] p_0/k_B:  86.67507 [K], p_1: 3.47210 [A], shift/k_B:  -0.20331300 [K], tailcorrection: no
    Al2 -      O3 [LENNARD_JONES] p_0/k_B:  86.67507 [K], p_1: 3.47210 [A], shift/k_B:  -0.20331300 [K], tailcorrection: no
    Al2 -      O6 [LENNARD_JONES] p_0/k_B:  86.67507 [K], p_1: 3.47210 [A], shift/k_B:  -0.20331300 [K], tailcorrection: no
    Al2 -     O10 [LENNARD_JONES] p_0/k_B:  86.67507 [K], p_1: 3.47210 [A], shift/k_B:  -0.20331300 [K], tailcorrection: no
    Al2 -      O8 [LENNARD_JONES] p_0/k_B:  86.67507 [K], p_1: 3.47210 [A], shift/k_B:  -0.20331300 [K], tailcorrection: no
    Al2 -      N4 [LENNARD_JONES] p_0/k_B:  77.94868 [K], p_1: 3.58681 [A], shift/k_B:  -0.22218672 [K], tailcorrection: no
    Al2 -      H4 [LENNARD_JONES] p_0/k_B:  34.54298 [K], p_1: 3.37873 [A], shift/k_B:  -0.06880828 [K], tailcorrection: no
    Al2 -      N1 [LENNARD_JONES] p_0/k_B:  77.94868 [K], p_1: 3.58681 [A], shift/k_B:  -0.22218672 [K], tailcorrection: no
    Al2 -     H1A [LENNARD_JONES] p_0/k_B:  34.54298 [K], p_1: 3.37873 [A], shift/k_B:  -0.06880828 [K], tailcorrection: no
    Al2 -      N2 [LENNARD_JONES] p_0/k_B:  77.94868 [K], p_1: 3.58681 [A], shift/k_B:  -0.22218672 [K], tailcorrection: no
    Al2 -      N3 [LENNARD_JONES] p_0/k_B:  77.94868 [K], p_1: 3.58681 [A], shift/k_B:  -0.22218672 [K], tailcorrection: no
    Al2 -      C1 [LENNARD_JONES] p_0/k_B:  86.40296 [K], p_1: 3.69202 [A], shift/k_B:  -0.29289832 [K], tailcorrection: no
    Al2 -      C6 [LENNARD_JONES] p_0/k_B:  86.40296 [K], p_1: 3.69202 [A], shift/k_B:  -0.29289832 [K], tailcorrection: no
    Al2 -      C5 [LENNARD_JONES] p_0/k_B:  86.40296 [K], p_1: 3.69202 [A], shift/k_B:  -0.29289832 [K], tailcorrection: no
    Al2 -      C3 [LENNARD_JONES] p_0/k_B:  86.40296 [K], p_1: 3.69202 [A], shift/k_B:  -0.29289832 [K], tailcorrection: no
    Al2 -      H3 [LENNARD_JONES] p_0/k_B:  34.54298 [K], p_1: 3.37873 [A], shift/k_B:  -0.06880828 [K], tailcorrection: no
    Al2 -     C10 [LENNARD_JONES] p_0/k_B:  86.40296 [K], p_1: 3.69202 [A], shift/k_B:  -0.29289832 [K], tailcorrection: no
    Al2 -      C8 [LENNARD_JONES] p_0/k_B:  86.40296 [K], p_1: 3.69202 [A], shift/k_B:  -0.29289832 [K], tailcorrection: no
    Al2 -      H8 [LENNARD_JONES] p_0/k_B:  34.54298 [K], p_1: 3.37873 [A], shift/k_B:  -0.06880828 [K], tailcorrection: no
    Al2 -      C2 [LENNARD_JONES] p_0/k_B:  86.40296 [K], p_1: 3.69202 [A], shift/k_B:  -0.29289832 [K], tailcorrection: no
    Al2 -      C9 [LENNARD_JONES] p_0/k_B:  86.40296 [K], p_1: 3.69202 [A], shift/k_B:  -0.29289832 [K], tailcorrection: no
    Al2 -      C7 [LENNARD_JONES] p_0/k_B:  86.40296 [K], p_1: 3.69202 [A], shift/k_B:  -0.29289832 [K], tailcorrection: no
    Al2 -      C4 [LENNARD_JONES] p_0/k_B:  86.40296 [K], p_1: 3.69202 [A], shift/k_B:  -0.29289832 [K], tailcorrection: no
    Al1 -     Al1 [LENNARD_JONES] p_0/k_B: 155.99800 [K], p_1: 3.91105 [A], shift/k_B:  -0.74701771 [K], tailcorrection: no
    Al1 -     Al3 [LENNARD_JONES] p_0/k_B: 155.99800 [K], p_1: 3.91105 [A], shift/k_B:  -0.74701771 [K], tailcorrection: no
    Al1 -      O4 [LENNARD_JONES] p_0/k_B:  86.67507 [K], p_1: 3.47210 [A], shift/k_B:  -0.20331300 [K], tailcorrection: no
    Al1 -      O2 [LENNARD_JONES] p_0/k_B:  86.67507 [K], p_1: 3.47210 [A], shift/k_B:  -0.20331300 [K], tailcorrection: no
    Al1 -      H2 [LENNARD_JONES] p_0/k_B:  34.54298 [K], p_1: 3.37873 [A], shift/k_B:  -0.06880828 [K], tailcorrection: no
    Al1 -      O7 [LENNARD_JONES] p_0/k_B:  86.67507 [K], p_1: 3.47210 [A], shift/k_B:  -0.20331300 [K], tailcorrection: no
    Al1 -      O1 [LENNARD_JONES] p_0/k_B:  86.67507 [K], p_1: 3.47210 [A], shift/k_B:  -0.20331300 [K], tailcorrection: no
    Al1 -      H1 [LENNARD_JONES] p_0/k_B:  34.54298 [K], p_1: 3.37873 [A], shift/k_B:  -0.06880828 [K], tailcorrection: no
    Al1 -      O5 [LENNARD_JONES] p_0/k_B:  86.67507 [K], p_1: 3.47210 [A], shift/k_B:  -0.20331300 [K], tailcorrection: no
    Al1 -      O9 [LENNARD_JONES] p_0/k_B:  86.67507 [K], p_1: 3.47210 [A], shift/k_B:  -0.20331300 [K], tailcorrection: no
    Al1 -      O3 [LENNARD_JONES] p_0/k_B:  86.67507 [K], p_1: 3.47210 [A], shift/k_B:  -0.20331300 [K], tailcorrection: no
    Al1 -      O6 [LENNARD_JONES] p_0/k_B:  86.67507 [K], p_1: 3.47210 [A], shift/k_B:  -0.20331300 [K], tailcorrection: no
    Al1 -     O10 [LENNARD_JONES] p_0/k_B:  86.67507 [K], p_1: 3.47210 [A], shift/k_B:  -0.20331300 [K], tailcorrection: no
    Al1 -      O8 [LENNARD_JONES] p_0/k_B:  86.67507 [K], p_1: 3.47210 [A], shift/k_B:  -0.20331300 [K], tailcorrection: no
    Al1 -      N4 [LENNARD_JONES] p_0/k_B:  77.94868 [K], p_1: 3.58681 [A], shift/k_B:  -0.22218672 [K], tailcorrection: no
    Al1 -      H4 [LENNARD_JONES] p_0/k_B:  34.54298 [K], p_1: 3.37873 [A], shift/k_B:  -0.06880828 [K], tailcorrection: no
    Al1 -      N1 [LENNARD_JONES] p_0/k_B:  77.94868 [K], p_1: 3.58681 [A], shift/k_B:  -0.22218672 [K], tailcorrection: no
    Al1 -     H1A [LENNARD_JONES] p_0/k_B:  34.54298 [K], p_1: 3.37873 [A], shift/k_B:  -0.06880828 [K], tailcorrection: no
    Al1 -      N2 [LENNARD_JONES] p_0/k_B:  77.94868 [K], p_1: 3.58681 [A], shift/k_B:  -0.22218672 [K], tailcorrection: no
    Al1 -      N3 [LENNARD_JONES] p_0/k_B:  77.94868 [K], p_1: 3.58681 [A], shift/k_B:  -0.22218672 [K], tailcorrection: no
    Al1 -      C1 [LENNARD_JONES] p_0/k_B:  86.40296 [K], p_1: 3.69202 [A], shift/k_B:  -0.29289832 [K], tailcorrection: no
    Al1 -      C6 [LENNARD_JONES] p_0/k_B:  86.40296 [K], p_1: 3.69202 [A], shift/k_B:  -0.29289832 [K], tailcorrection: no
    Al1 -      C5 [LENNARD_JONES] p_0/k_B:  86.40296 [K], p_1: 3.69202 [A], shift/k_B:  -0.29289832 [K], tailcorrection: no
    Al1 -      C3 [LENNARD_JONES] p_0/k_B:  86.40296 [K], p_1: 3.69202 [A], shift/k_B:  -0.29289832 [K], tailcorrection: no
    Al1 -      H3 [LENNARD_JONES] p_0/k_B:  34.54298 [K], p_1: 3.37873 [A], shift/k_B:  -0.06880828 [K], tailcorrection: no
    Al1 -     C10 [LENNARD_JONES] p_0/k_B:  86.40296 [K], p_1: 3.69202 [A], shift/k_B:  -0.29289832 [K], tailcorrection: no
    Al1 -      C8 [LENNARD_JONES] p_0/k_B:  86.40296 [K], p_1: 3.69202 [A], shift/k_B:  -0.29289832 [K], tailcorrection: no
    Al1 -      H8 [LENNARD_JONES] p_0/k_B:  34.54298 [K], p_1: 3.37873 [A], shift/k_B:  -0.06880828 [K], tailcorrection: no
    Al1 -      C2 [LENNARD_JONES] p_0/k_B:  86.40296 [K], p_1: 3.69202 [A], shift/k_B:  -0.29289832 [K], tailcorrection: no
    Al1 -      C9 [LENNARD_JONES] p_0/k_B:  86.40296 [K], p_1: 3.69202 [A], shift/k_B:  -0.29289832 [K], tailcorrection: no
    Al1 -      C7 [LENNARD_JONES] p_0/k_B:  86.40296 [K], p_1: 3.69202 [A], shift/k_B:  -0.29289832 [K], tailcorrection: no
    Al1 -      C4 [LENNARD_JONES] p_0/k_B:  86.40296 [K], p_1: 3.69202 [A], shift/k_B:  -0.29289832 [K], tailcorrection: no
    Al3 -     Al3 [LENNARD_JONES] p_0/k_B: 155.99800 [K], p_1: 3.91105 [A], shift/k_B:  -0.74701771 [K], tailcorrection: no
    Al3 -      O4 [LENNARD_JONES] p_0/k_B:  86.67507 [K], p_1: 3.47210 [A], shift/k_B:  -0.20331300 [K], tailcorrection: no
    Al3 -      O2 [LENNARD_JONES] p_0/k_B:  86.67507 [K], p_1: 3.47210 [A], shift/k_B:  -0.20331300 [K], tailcorrection: no
    Al3 -      H2 [LENNARD_JONES] p_0/k_B:  34.54298 [K], p_1: 3.37873 [A], shift/k_B:  -0.06880828 [K], tailcorrection: no
    Al3 -      O7 [LENNARD_JONES] p_0/k_B:  86.67507 [K], p_1: 3.47210 [A], shift/k_B:  -0.20331300 [K], tailcorrection: no
    Al3 -      O1 [LENNARD_JONES] p_0/k_B:  86.67507 [K], p_1: 3.47210 [A], shift/k_B:  -0.20331300 [K], tailcorrection: no
    Al3 -      H1 [LENNARD_JONES] p_0/k_B:  34.54298 [K], p_1: 3.37873 [A], shift/k_B:  -0.06880828 [K], tailcorrection: no
    Al3 -      O5 [LENNARD_JONES] p_0/k_B:  86.67507 [K], p_1: 3.47210 [A], shift/k_B:  -0.20331300 [K], tailcorrection: no
    Al3 -      O9 [LENNARD_JONES] p_0/k_B:  86.67507 [K], p_1: 3.47210 [A], shift/k_B:  -0.20331300 [K], tailcorrection: no
    Al3 -      O3 [LENNARD_JONES] p_0/k_B:  86.67507 [K], p_1: 3.47210 [A], shift/k_B:  -0.20331300 [K], tailcorrection: no
    Al3 -      O6 [LENNARD_JONES] p_0/k_B:  86.67507 [K], p_1: 3.47210 [A], shift/k_B:  -0.20331300 [K], tailcorrection: no
    Al3 -     O10 [LENNARD_JONES] p_0/k_B:  86.67507 [K], p_1: 3.47210 [A], shift/k_B:  -0.20331300 [K], tailcorrection: no
    Al3 -      O8 [LENNARD_JONES] p_0/k_B:  86.67507 [K], p_1: 3.47210 [A], shift/k_B:  -0.20331300 [K], tailcorrection: no
    Al3 -      N4 [LENNARD_JONES] p_0/k_B:  77.94868 [K], p_1: 3.58681 [A], shift/k_B:  -0.22218672 [K], tailcorrection: no
    Al3 -      H4 [LENNARD_JONES] p_0/k_B:  34.54298 [K], p_1: 3.37873 [A], shift/k_B:  -0.06880828 [K], tailcorrection: no
    Al3 -      N1 [LENNARD_JONES] p_0/k_B:  77.94868 [K], p_1: 3.58681 [A], shift/k_B:  -0.22218672 [K], tailcorrection: no
    Al3 -     H1A [LENNARD_JONES] p_0/k_B:  34.54298 [K], p_1: 3.37873 [A], shift/k_B:  -0.06880828 [K], tailcorrection: no
    Al3 -      N2 [LENNARD_JONES] p_0/k_B:  77.94868 [K], p_1: 3.58681 [A], shift/k_B:  -0.22218672 [K], tailcorrection: no
    Al3 -      N3 [LENNARD_JONES] p_0/k_B:  77.94868 [K], p_1: 3.58681 [A], shift/k_B:  -0.22218672 [K], tailcorrection: no
    Al3 -      C1 [LENNARD_JONES] p_0/k_B:  86.40296 [K], p_1: 3.69202 [A], shift/k_B:  -0.29289832 [K], tailcorrection: no
    Al3 -      C6 [LENNARD_JONES] p_0/k_B:  86.40296 [K], p_1: 3.69202 [A], shift/k_B:  -0.29289832 [K], tailcorrection: no
    Al3 -      C5 [LENNARD_JONES] p_0/k_B:  86.40296 [K], p_1: 3.69202 [A], shift/k_B:  -0.29289832 [K], tailcorrection: no
    Al3 -      C3 [LENNARD_JONES] p_0/k_B:  86.40296 [K], p_1: 3.69202 [A], shift/k_B:  -0.29289832 [K], tailcorrection: no
    Al3 -      H3 [LENNARD_JONES] p_0/k_B:  34.54298 [K], p_1: 3.37873 [A], shift/k_B:  -0.06880828 [K], tailcorrection: no
    Al3 -     C10 [LENNARD_JONES] p_0/k_B:  86.40296 [K], p_1: 3.69202 [A], shift/k_B:  -0.29289832 [K], tailcorrection: no
    Al3 -      C8 [LENNARD_JONES] p_0/k_B:  86.40296 [K], p_1: 3.69202 [A], shift/k_B:  -0.29289832 [K], tailcorrection: no
    Al3 -      H8 [LENNARD_JONES] p_0/k_B:  34.54298 [K], p_1: 3.37873 [A], shift/k_B:  -0.06880828 [K], tailcorrection: no
    Al3 -      C2 [LENNARD_JONES] p_0/k_B:  86.40296 [K], p_1: 3.69202 [A], shift/k_B:  -0.29289832 [K], tailcorrection: no
    Al3 -      C9 [LENNARD_JONES] p_0/k_B:  86.40296 [K], p_1: 3.69202 [A], shift/k_B:  -0.29289832 [K], tailcorrection: no
[...]
=======================================
	Block[ 0]            0.00000 [K]
	Block[ 1]            0.00000 [K]
	Block[ 2]            0.00000 [K]
	Block[ 3]            0.00000 [K]
	Block[ 4]            0.00000 [K]
	------------------------------------------------------------------------------
	Average              0.00000 [K] +/-            0.00000 [K]

Average Cation Bond-Bond cross term energy:
=================================================
	Block[ 0]            0.00000 [K]
	Block[ 1]            0.00000 [K]
	Block[ 2]            0.00000 [K]
	Block[ 3]            0.00000 [K]
	Block[ 4]            0.00000 [K]
	------------------------------------------------------------------------------
	Average              0.00000 [K] +/-            0.00000 [K]

Average Cation Bend-Bend cross term energy:
===========================================
	Block[ 0]            0.00000 [K]
	Block[ 1]            0.00000 [K]
	Block[ 2]            0.00000 [K]
	Block[ 3]            0.00000 [K]
	Block[ 4]            0.00000 [K]
	------------------------------------------------------------------------------
	Average              0.00000 [K] +/-            0.00000 [K]

Average Cation Bond-Bend cross term energy:
==============================================
	Block[ 0]            0.00000 [K]
	Block[ 1]            0.00000 [K]
	Block[ 2]            0.00000 [K]
	Block[ 3]            0.00000 [K]
	Block[ 4]            0.00000 [K]
	------------------------------------------------------------------------------
	Average              0.00000 [K] +/-            0.00000 [K]

Average Cation Bond-Torsion cross term energy:
==============================================
	Block[ 0]            0.00000 [K]
	Block[ 1]            0.00000 [K]
	Block[ 2]            0.00000 [K]
	Block[ 3]            0.00000 [K]
	Block[ 4]            0.00000 [K]
	------------------------------------------------------------------------------
	Average              0.00000 [K] +/-            0.00000 [K]

Average Cation Bend-Torsion cross term energy:
==============================================
	Block[ 0]            0.00000 [K]
	Block[ 1]            0.00000 [K]
	Block[ 2]            0.00000 [K]
	Block[ 3]            0.00000 [K]
	Block[ 4]            0.00000 [K]
	------------------------------------------------------------------------------
	Average              0.00000 [K] +/-            0.00000 [K]

Average Cation Intra Van der Waals energy:
==========================================
	Block[ 0]            0.00000 [K]
	Block[ 1]            0.00000 [K]
	Block[ 2]            0.00000 [K]
	Block[ 3]            0.00000 [K]
	Block[ 4]            0.00000 [K]
	------------------------------------------------------------------------------
	Average              0.00000 [K] +/-            0.00000 [K]

Average Cation Intra charge-charge Coulomb energy:
====================================
	Block[ 0]            0.00000 [K]
	Block[ 1]            0.00000 [K]
	Block[ 2]            0.00000 [K]
	Block[ 3]            0.00000 [K]
	Block[ 4]            0.00000 [K]
	------------------------------------------------------------------------------
	Average              0.00000 [K] +/-            0.00000 [K]

Average Cation Intra charge-bonddipole Coulomb energy:
====================================
	Block[ 0]            0.00000 [K]
	Block[ 1]            0.00000 [K]
	Block[ 2]            0.00000 [K]
	Block[ 3]            0.00000 [K]
	Block[ 4]            0.00000 [K]
	------------------------------------------------------------------------------
	Average              0.00000 [K] +/-            0.00000 [K]

Average Cation Intra bonddipole-bonddipole Coulomb energy:
====================================
	Block[ 0]            0.00000 [K]
	Block[ 1]            0.00000 [K]
	Block[ 2]            0.00000 [K]
	Block[ 3]            0.00000 [K]
	Block[ 4]            0.00000 [K]
	------------------------------------------------------------------------------
	Average              0.00000 [K] +/-            0.00000 [K]

Average Host-Host energy:
=========================
	Block[ 0] 0.00000            Van der Waals: 0.00000            Coulomb: 0.00000            [K]
	Block[ 1] 0.00000            Van der Waals: 0.00000            Coulomb: 0.00000            [K]
	Block[ 2] 0.00000            Van der Waals: 0.00000            Coulomb: 0.00000            [K]
	Block[ 3] 0.00000            Van der Waals: 0.00000            Coulomb: 0.00000            [K]
	Block[ 4] 0.00000            Van der Waals: 0.00000            Coulomb: 0.00000            [K]
	------------------------------------------------------------------------------
	Average   0.00000            Van der Waals: 0.000000           Coulomb: 0.00000            [K]
	      +/- 0.00000                       +/- 0.000000                +/- 0.00000            [K]

Average Adsorbate-Adsorbate energy:
===================================
	Block[ 0] 0.00000            Van der Waals: 0.00000            Coulomb: 0.00000            [K]
	Block[ 1] 0.00000            Van der Waals: 0.00000            Coulomb: 0.00000            [K]
	Block[ 2] 0.00000            Van der Waals: 0.00000            Coulomb: 0.00000            [K]
	Block[ 3] 0.00000            Van der Waals: 0.00000            Coulomb: 0.00000            [K]
	Block[ 4] 0.00000            Van der Waals: 0.00000            Coulomb: 0.00000            [K]
	------------------------------------------------------------------------------
	Average   0.00000            Van der Waals: 0.000000           Coulomb: 0.00000            [K]
	      +/- 0.00000                       +/- 0.000000                +/- 0.00000            [K]

Average Cation-Cation energy:
=============================
	Block[ 0] 0.00000            Van der Waals: 0.00000            Coulomb: 0.00000            [K]
	Block[ 1] 0.00000            Van der Waals: 0.00000            Coulomb: 0.00000            [K]
	Block[ 2] 0.00000            Van der Waals: 0.00000            Coulomb: 0.00000            [K]
	Block[ 3] 0.00000            Van der Waals: 0.00000            Coulomb: 0.00000            [K]
	Block[ 4] 0.00000            Van der Waals: 0.00000            Coulomb: 0.00000            [K]
	------------------------------------------------------------------------------
	Average   0.00000            Van der Waals: 0.000000           Coulomb: 0.00000            [K]
	      +/- 0.00000                       +/- 0.000000                +/- 0.00000            [K]

Average Host-Adsorbate energy:
==============================
	Block[ 0] 0.00000            Van der Waals: 0.00000            Coulomb: 0.00000            [K]
	Block[ 1] 0.00000            Van der Waals: 0.00000            Coulomb: 0.00000            [K]
	Block[ 2] 0.00000            Van der Waals: 0.00000            Coulomb: 0.00000            [K]
	Block[ 3] 0.00000            Van der Waals: 0.00000            Coulomb: 0.00000            [K]
	Block[ 4] 0.00000            Van der Waals: 0.00000            Coulomb: 0.00000            [K]
	------------------------------------------------------------------------------
	Average   0.00000            Van der Waals: 0.000000           Coulomb: 0.00000            [K]
	      +/- 0.00000                       +/- 0.000000                +/- 0.00000            [K]

Average Host-Cation energy:
===========================
	Block[ 0] 0.00000            Van der Waals: 0.00000            Coulomb: 0.00000            [K]
	Block[ 1] 0.00000            Van der Waals: 0.00000            Coulomb: 0.00000            [K]
	Block[ 2] 0.00000            Van der Waals: 0.00000            Coulomb: 0.00000            [K]
	Block[ 3] 0.00000            Van der Waals: 0.00000            Coulomb: 0.00000            [K]
	Block[ 4] 0.00000            Van der Waals: 0.00000            Coulomb: 0.00000            [K]
	------------------------------------------------------------------------------
	Average   0.00000            Van der Waals: 0.000000           Coulomb: 0.00000            [K]
	      +/- 0.00000                       +/- 0.000000                +/- 0.00000            [K]

Average Adsorbate-Cation energy:
================================
	Block[ 0] 0.00000            Van der Waals: 0.00000            Coulomb: 0.00000            [K]
	Block[ 1] 0.00000            Van der Waals: 0.00000            Coulomb: 0.00000            [K]
	Block[ 2] 0.00000            Van der Waals: 0.00000            Coulomb: 0.00000            [K]
	Block[ 3] 0.00000            Van der Waals: 0.00000            Coulomb: 0.00000            [K]
	Block[ 4] 0.00000            Van der Waals: 0.00000            Coulomb: 0.00000            [K]
	------------------------------------------------------------------------------
	Average   0.00000            Van der Waals: 0.000000           Coulomb: 0.00000            [K]
	      +/- 0.00000                       +/- 0.000000                +/- 0.00000            [K]

Host polarization energy:
=======================
	Block[ 0]            0.00000 [K]
	Block[ 1]            0.00000 [K]
	Block[ 2]            0.00000 [K]
	Block[ 3]            0.00000 [K]
	Block[ 4]            0.00000 [K]
	------------------------------------------------------------------------------
	Average              0.00000 [K] +/-            0.00000 [K]

Adsorbate polarization energy:
=======================
	Block[ 0]            0.00000 [K]
	Block[ 1]            0.00000 [K]
	Block[ 2]            0.00000 [K]
	Block[ 3]            0.00000 [K]
	Block[ 4]            0.00000 [K]
	------------------------------------------------------------------------------
	Average              0.00000 [K] +/-            0.00000 [K]

Cation polarization energy:
=======================
	Block[ 0]            0.00000 [K]
	Block[ 1]            0.00000 [K]
	Block[ 2]            0.00000 [K]
	Block[ 3]            0.00000 [K]
	Block[ 4]            0.00000 [K]
	------------------------------------------------------------------------------
	Average              0.00000 [K] +/-            0.00000 [K]

Host back-polarization energy:
=======================
	Block[ 0]            0.00000 [K]
	Block[ 1]            0.00000 [K]
	Block[ 2]            0.00000 [K]
	Block[ 3]            0.00000 [K]
	Block[ 4]            0.00000 [K]
	------------------------------------------------------------------------------
	Average              0.00000 [K] +/-            0.00000 [K]

Adsorbate back-polarization energy:
=======================
	Block[ 0]            0.00000 [K]
	Block[ 1]            0.00000 [K]
	Block[ 2]            0.00000 [K]
	Block[ 3]            0.00000 [K]
	Block[ 4]            0.00000 [K]
	------------------------------------------------------------------------------
	Average              0.00000 [K] +/-            0.00000 [K]

Cation back-polarization energy:
=======================
	Block[ 0]            0.00000 [K]
	Block[ 1]            0.00000 [K]
	Block[ 2]            0.00000 [K]
	Block[ 3]            0.00000 [K]
	Block[ 4]            0.00000 [K]
	------------------------------------------------------------------------------
	Average              0.00000 [K] +/-            0.00000 [K]

Tail-correction energy:
=======================
	Block[ 0]            0.00000 [K]
	Block[ 1]            0.00000 [K]
	Block[ 2]            0.00000 [K]
	Block[ 3]            0.00000 [K]
	Block[ 4]            0.00000 [K]
	------------------------------------------------------------------------------
	Average              0.00000 [K] +/-            0.00000 [K]

Distance-constraints energy:
=======================
	Block[ 0]            0.00000 [K]
	Block[ 1]            0.00000 [K]
	Block[ 2]            0.00000 [K]
	Block[ 3]            0.00000 [K]
	Block[ 4]            0.00000 [K]
	------------------------------------------------------------------------------
	Average              0.00000 [K] +/-            0.00000 [K]

Angle-constraints energy:
=======================
	Block[ 0]            0.00000 [K]
	Block[ 1]            0.00000 [K]
	Block[ 2]            0.00000 [K]
	Block[ 3]            0.00000 [K]
	Block[ 4]            0.00000 [K]
	------------------------------------------------------------------------------
	Average              0.00000 [K] +/-            0.00000 [K]

Dihedral-constraints energy:
=======================
	Block[ 0]            0.00000 [K]
	Block[ 1]            0.00000 [K]
	Block[ 2]            0.00000 [K]
	Block[ 3]            0.00000 [K]
	Block[ 4]            0.00000 [K]
	------------------------------------------------------------------------------
	Average              0.00000 [K] +/-            0.00000 [K]

Inversion-bend constraints energy:
=======================
	Block[ 0]            0.00000 [K]
	Block[ 1]            0.00000 [K]
	Block[ 2]            0.00000 [K]
	Block[ 3]            0.00000 [K]
	Block[ 4]            0.00000 [K]
	------------------------------------------------------------------------------
	Average              0.00000 [K] +/-            0.00000 [K]

Out-of-plane-distance constraints energy:
=======================
	Block[ 0]            0.00000 [K]
	Block[ 1]            0.00000 [K]
	Block[ 2]            0.00000 [K]
	Block[ 3]            0.00000 [K]
	Block[ 4]            0.00000 [K]
	------------------------------------------------------------------------------
	Average              0.00000 [K] +/-            0.00000 [K]

Exclusion-constraints energy:
=======================
	Block[ 0]            0.00000 [K]
	Block[ 1]            0.00000 [K]
	Block[ 2]            0.00000 [K]
	Block[ 3]            0.00000 [K]
	Block[ 4]            0.00000 [K]
	------------------------------------------------------------------------------
	Average              0.00000 [K] +/-            0.00000 [K]

Total energy:
=============
	Block[ 0]            0.00000 [K]
	Block[ 1]            0.00000 [K]
	Block[ 2]            0.00000 [K]
	Block[ 3]            0.00000 [K]
	Block[ 4]            0.00000 [K]
	------------------------------------------------------------------------------
	Average              0.00000 [K] +/-            0.00000 [K]

Number of molecules:
====================

Component 0 [PFBA]
-------------------------------------------------------------
	Block[ 0] 0.00000            [-]
	Block[ 1] 0.00000            [-]
	Block[ 2] 0.00000            [-]
	Block[ 3] 0.00000            [-]
	Block[ 4] 0.00000            [-]
	------------------------------------------------------------------------------
	Average loading absolute                              0.0000000000 +/-       0.0000000000 [-]
	Average loading absolute [molecules/unit cell]        0.0000000000 +/-       0.0000000000 [-]
	Average loading absolute [mol/kg framework]                  0.0000000000 +/-       0.0000000000 [-]
	Average loading absolute [milligram/gram framework]          0.0000000000 +/-       0.0000000000 [-]
	Average loading absolute [cm^3 (STP)/gr framework]           0.0000000000 +/-       0.0000000000 [-]
	Average loading absolute [cm^3 (STP)/cm^3 framework]         0.0000000000 +/-       0.0000000000 [-]

	Block[ 0] 0.00000            [-]
	Block[ 1] 0.00000            [-]
	Block[ 2] 0.00000            [-]
	Block[ 3] 0.00000            [-]
	Block[ 4] 0.00000            [-]
	------------------------------------------------------------------------------
	Average loading excess                              0.0000000000 +/-       0.0000000000 [-]
	Average loading excess [molecules/unit cell]        0.0000000000 +/-       0.0000000000 [-]
	Average loading excess [mol/kg framework]                    0.0000000000 +/-       0.0000000000 [-]
	Average loading excess [milligram/gram framework]            0.0000000000 +/-       0.0000000000 [-]
	Average loading excess [cm^3 (STP)/gr framework]             0.0000000000 +/-       0.0000000000 [-]
	Average loading excess [cm^3 (STP)/cm^3 framework]           0.0000000000 +/-       0.0000000000 [-]


Average Widom Rosenbluth factor:
================================
	Block[ 0] 2.53931e+10 [-]
	Block[ 1] 3.88797e+10 [-]
	Block[ 2] 1.39463e+10 [-]
	Block[ 3] 1.11137e+10 [-]
	Block[ 4] 1.39693e+10 [-]
	------------------------------------------------------------------------------
	[PFBA] Average Widom Rosenbluth-weight:   2.06604e+10 +/- 14362022835.582085 [-]

Average Widom chemical potential:
=================================
	Block[ 0] -10521.2 [-]
	Block[ 1] -10649 [-]
	Block[ 2] -10341.4 [-]
	Block[ 3] -10273.3 [-]
	Block[ 4] -10341.9 [-]
	------------------------------------------------------------------------------
	[PFBA] Average chemical potential:   -10425.4 +/- 192.654403 [K]

Average Widom Ideal-gas contribution:
=====================================
	Block[ 0] -3333.9 [-]
	Block[ 1] -3333.9 [-]
	Block[ 2] -3333.9 [-]
	Block[ 3] -3333.9 [-]
	Block[ 4] -3333.9 [-]
	------------------------------------------------------------------------------
	[PFBA] Average Widom Ideal-gas chemical potential:   -3333.9 +/- 0.000060 [-]

Average Widom excess contribution:
==================================
	Block[ 0] -7187.33 [-]
	Block[ 1] -7315.13 [-]
	Block[ 2] -7007.55 [-]
	Block[ 3] -6939.44 [-]
	Block[ 4] -7008.05 [-]
	------------------------------------------------------------------------------
	[PFBA] Average Widom excess chemical potential:   -7091.5 +/- 192.654403 [-]

Average Gibbs Widom Rosenbluth factor:
======================================
	Block[ 0] 0 [-]
	Block[ 1] 0 [-]
	Block[ 2] 0 [-]
	Block[ 3] 0 [-]
	Block[ 4] 0 [-]
	------------------------------------------------------------------------------
	[PFBA] Average Gibbs Widom Rosenbluth-weight:   0 +/- 0.000000 [-]

Average Gibbs Widom chemical potential:
=======================================
	Block[ 0] 0 [-]
	Block[ 1] 0 [-]
	Block[ 2] 0 [-]
	Block[ 3] 0 [-]
	Block[ 4] 0 [-]
	------------------------------------------------------------------------------
	[PFBA] Average Gibbs chemical potential:   0 +/- 0.000000 [K]

Average osmostat calibration for alchemical transformation:
=======================================
	Block[ 0] 0 [-]
	Block[ 1] 0 [-]
	Block[ 2] 0 [-]
	Block[ 3] 0 [-]
	Block[ 4] 0 [-]
	------------------------------------------------------------------------------
	Average osmostat calibration for alchemical transformation:   0 +/- 0.000000 [K]
	Average osmostat calibration for alchemical transformation:   0 +/- 0.000000 [kJ/mol]

Average Gibbs Widom Ideal-gas contribution:
===========================================
	Block[ 0] 0 [-]
	Block[ 1] 0 [-]
	Block[ 2] 0 [-]
	Block[ 3] 0 [-]
	Block[ 4] 0 [-]
	------------------------------------------------------------------------------
	[PFBA] Average Gibbs Ideal-gas chemical potential:   0 +/- 0.000000 [-]

Average Gibbs Widom excess contribution:
===========================================
	Block[ 0] 0 [-]
	Block[ 1] 0 [-]
	Block[ 2] 0 [-]
	Block[ 3] 0 [-]
	Block[ 4] 0 [-]
	------------------------------------------------------------------------------
	[PFBA] Average Gibbs excess chemical potential:   0 +/- 0.000000 [-]

Average Henry coefficient:
==========================
	Block[ 0] 9606.03 [mol/kg/Pa]
	Block[ 1] 14707.9 [mol/kg/Pa]
	Block[ 2] 5275.78 [mol/kg/Pa]
	Block[ 3] 4204.25 [mol/kg/Pa]
	Block[ 4] 5284.49 [mol/kg/Pa]
	------------------------------------------------------------------------------
	[PFBA] Average Henry coefficient:  7815.69 +/- 5433.05 [mol/kg/Pa]

Average adsorption energy <U_gh>_1-<U_h>_0 obtained from Widom-insertion:
(Note: the total heat of adsorption is dH=<U_gh>_1-<U_h>_0 - <U_g> - RT)
=========================================================================
	Block[ 0] -10570.5645057200  [K]
	Block[ 1] -9835.1036292950   [K]
	Block[ 2] -10621.6511457764  [K]
	Block[ 3] -10060.5576362384  [K]
	Block[ 4] -10277.2179148801  [K]
	------------------------------------------------------------------------------
	[PFBA] Average  <U_gh>_1-<U_h>_0:   -10273.0189663820 +/-     415.0120162104 [K]       (    -85.4146558082 +/-       3.4506028497 kJ/mol)

Simulation finished,  0 warnings


Thu Jul 10 21:07:12 2025
Simulation finished on Thursday, July 10.
The end time was 09:07 PM.

