Compiler and run-time data
===========================================================================
RASPA 2.0.50
Compiled as a 64-bits application
Compiler: gcc 9.4.0
Compile Date = Jul  6 2025, Compile Time = 19:36:18

Wed Jul  9 11:24:57 2025
Simulation started on Wednesday, July 09.
The start time was 11:24 AM.

Hostname:    LapTop2
OS type:     Linux on x86_64
OS release:  6.6.87.2-microsoft-standard-WSL2
OS version:  #1 SMP PREEMPT_DYNAMIC Thu Jun  5 18:30:46 UTC 2025

Simulation
===========================================================================
Dimensions: 3
Random number seed: 1752078294
RASPA directory set to: /home/jaysa/RASPA
String appended to output-files: 
Number of cycles: 5000
Number of initializing cycles: 0
Number of equilibration cycles: 0
Print every: 1000
Cubic boundary condition applied
Timestep: 0.000500
	Degrees of freedom:                        0
	Translational Degrees of freedom:          0
	Rotational Degrees of freedom:             0
	Degrees of freedom Framework:              0


Mutual consistent basic set of units:
======================================
Unit of temperature: Kelvin
Unit of length:      1e-10 [m]
Unit of time:        1e-12 [s]
Unit of mass:        1.66054e-27 [kg]
Unit of charge:      1.60218e-19 [C/particle]

Derived units and their conversion factors:
===========================================
Unit of energy:              1.66054e-23 [J]
Unit of force:               1.66054e-13 [N]
Unit of pressure:            1.66054e+07 [Pa]
Unit of velocity:            100 [m/s]
Unit of acceleration:        1e-08 [m^2/s]
Unit of diffusion:           1e-08 [m^2/s]
Unit of dipole moment:       1.60218e-29 [C.m]
Unit of electric potential:  0.000103643 [V]
Unit of electric field:      1.03643e+06 [V]
Unit of polarizability:      1.54587e-35 [-]
Unit of Coulomb potential:   167101.0800066561  [K]
Unit of dielectric constant: 0.0000154587       [s^2 C^2/(kg m^3)]
Unit of wave vectors:        5.3088374589       [cm^1]
Boltzmann constant:          0.8314464919       [-]

Internal conversion factors:
===========================================
Energy to Kelvin:                                    1.2027242847
FH correction factor                                 2.0211930949
Heat capacity conversion factor:                    10.0000088723
From Debye to internal units:                        4.8032067991
Isothermal compressibility conversion factor:        0.0000000602

Energy conversion factors:
===========================================
From mdyne/A to kcal/mol/A^2:           143.933
From mdyne/A to kj/mol/A^2:             602.214
From mdyne/A to K/A^2:                  72429.7
From mdyne A/rad^2 to kcal/mol/deg^2:   0.0438444


Properties computed
===========================================================================
Movies: no
Radial Distribution Function: no
Number of molecules GCMC histogram: no
Histogram of the molecule positions: no
Free energy profiles: no
Pore Size Distribution Function: no
End-to-end distance: no
Histogram of the energy of the system: no
Compute thermodynamic factors: no
Framework spacing histograms: no
Residence times histograms: no
Distance histograms: no
Bend Angle histograms: no
Dihedral angle histograms: no
Angle between planes histograms: no
Molecule properties: no
Infra-red spectra: no
Mean-squared displacement using modified order-N algorithm: no
Velocity-autocorrelation function modified order-N algorithm: no
Rotational velocity-autocorrelation function modified order-N algorithm: no
Molecular orientation-autocorrelation function modified order-N algorithm: no
Bond orientation-autocorrelation function modified order-N algorithm: no
Mean-squared displacement (conventional algorithm): no
Velocity-autocorrelation function (conventional algorithm): no
3D density grid for adsorbates: no
Compute cation an/or adsorption sites: no
dcTST snapshots: no
Compute pressure and stress: no


VTK
===========================================================================
VTK fractional-range position framework atoms: [-0.001000,1.001000] [-0.001000,1.001000] [-0.001000,1.001000]
VTK fractional-range position framework bonds: [-0.151000,1.151000] [-0.151000,1.151000] [-0.151000,1.151000]
VTK fractional-range com-position adsorbate molecules: [-0.101000,1.101000] [-0.101000,1.101000] [-0.101000,1.101000]
VTK fractional-range com-position cation molecules: [-0.101000,1.101000] [-0.101000,1.101000] [-0.101000,1.101000]
	3D free energy grid made for the full simulation-cell


Thermo/Baro-stat NHC parameters
===========================================================================
External temperature: 300 [K]
Beta: 0.00400908 [energy unit]
External Pressure: 0 [Pa]


Thermostat chain-length: 3
Timescale parameter for thermostat: 0.150000 [ps]
Barostat chain-length:   3
Timescale parameter for barostat:   0.150000 [ps]

Number of Yoshida-Suzuki decomposition steps: 5
Number of respa steps: 5


Method and settings for electrostatics
===============================================================================
Dielectric constant of the medium : 1.000000
Charge from charge-equilibration: no
Ewald summation is used (exact solution of a periodic system)
Relative precision                : 1e-06
Alpha convergence parameter       : 0.265058
kvec (x,y,z)                      : 10 10 10


CFC-RXMC parameters
===========================================================================
Number of reactions: 0


Rattle parameters
===========================================================================
Distance constraint type: r^2-r^2_0
Bend angle constraint type: theta-theta_0
Dihedral angle constraint type: phi-phi_0
Inversion-bend angle constraint type: chi-chi_0
Out-of-plane distance constraint type: r-r_0


Spectra parameters
===========================================================================
Compute normal modes: no


Minimization parameters
===========================================================================
Generalized coordinates are: Cartesian center-of-mass, elements of the orientational matrix p1,p2,p3 and strain
Potential derivatives are evaluated: analytically
Translation of the system is removed from the generalized Hessian: no
Rotation of the system is removed from the generalized Hessian: no
Maximum step-length: 0.3
Convergence factor: 1
Maximum number of minimization steps: 10000
Use gradients in the line-minimizations: yes
RMS gradient tolerance: 1e-06
Maximum gradient tolerance: 1e-06

Distance constraints: 0
Angle constraints: 0
Dihedral constraints: 0

Improper dihedral constraints: 0

Inversion-bend constraints: 0

Out-of-plane constraints: 0

Harmonic distance constraints: 0
Harmonic angle constraints: 0
Harmonic dihedral constraints: 0

Dihedral mid-point measurements: 0

All framework atoms are fixed

Fixed adsorbate atoms:  
Fixed adsorbate groups (center-of-mass):  
Fixed adsorbate groups (orientation):  

Fixed cation atoms:  
Fixed cation groups (center-of-mass):  
Fixed cation groups (orientation):  


dcTST parameters
===========================================================================
Free energy profiles computed: no
Free energy profiles written every 5000 cycles
Free energy mapping: mapped to a,b,c-coordinates
BarrierPosition:       0.0000000000       0.0000000000       0.0000000000
BarrierNormal:         0.0000000000       0.0000000000       0.0000000000
Start with a molecule on top of the barrier: no
Maximum distance to barrier (e.g. distance to minumum free energy):       0.0000000000 [A]
Maximum trajectory time:      10.0000000000 [ps]
Each configuration is used with 5 different initial velocities


Cbmc parameters
===========================================================================
Biasing method: using only the VDW part
Number of trial positions:                                       10
Number of trial positions (reinsertion):                         10
Number of trial positions (partial reinsertion):                 10
Number of trial positions (identity-change):                     10
Number of trial positions (Gibbs particle transfer):             10
Number of trial positions (insertion/deletion):                  10
Number of trial positions (Widom insertion):                     10
Number of trial positions coupled Torsion-selection:             100
Number of trial positions first bead:                            10
Number of trial positions first bead (reinsertion):              10
Number of trial positions first bead (partial reinsertion):      10
Number of trial positions first bead (identity-change):          10
Number of trial positions first bead (Gibbs particle transfer):  10
Number of trial positions first bead (insertion/deletion):       10
Number of trial positions first bead (Widom insertion):          10
Number of trial moves per open bead:                             150
Target acceptance ratio small-mc scheme:                         0.400000
Energy overlap criteria:                                         1e+07
Minimal Rosenbluth factor:                                       1e-150


Pseudo atoms: 42
===========================================================================
Pseudo Atom[   0] Name UNIT     Oxidation:          Element: H    pdb-name: H    Scat. Types:   1   1 Mass=1.000000000  B-factor:0.000   
                 Charge=1.000000000          Polarization=0.000000000  [A^3] (considered a charged atom and no polarization)  Interactions: yes
                 Anisotropic factor:    0.000 [-] (Absolute), Radius:    1.000 [A], Framework-atom:  no
Pseudo Atom[   1] Name CF3      Oxidation: +0       Element: C    pdb-name: C    Scat. Types:   7   6 Mass=69.000000000 B-factor:1.000   
                 Charge=0.000000000          Polarization=0.000000000  [A^3] (considered a chargeless atom and no polarization)  Interactions: yes
                 Anisotropic factor:    0.000 [-] (Relative), Radius:    1.000 [A], Framework-atom:  no
Pseudo Atom[   2] Name CF2      Oxidation: +0       Element: C    pdb-name: C    Scat. Types:   7   6 Mass=50.000000000 B-factor:1.000   
                 Charge=0.000000000          Polarization=0.000000000  [A^3] (considered a chargeless atom and no polarization)  Interactions: yes
                 Anisotropic factor:    0.000 [-] (Relative), Radius:    1.000 [A], Framework-atom:  no
Pseudo Atom[   3] Name CF21     Oxidation: +0       Element: C    pdb-name: C    Scat. Types:   7   6 Mass=50.000000000 B-factor:1.000   
                 Charge=0.120000000          Polarization=0.000000000  [A^3] (considered a charged atom and no polarization)  Interactions: yes
                 Anisotropic factor:    0.000 [-] (Relative), Radius:    1.000 [A], Framework-atom:  no
Pseudo Atom[   4] Name Co       Oxidation: +0       Element: C    pdb-name: C    Scat. Types:   7   6 Mass=12.010000000 B-factor:1.000   
                 Charge=0.420000000          Polarization=0.000000000  [A^3] (considered a charged atom and no polarization)  Interactions: yes
                 Anisotropic factor:    0.000 [-] (Relative), Radius:    0.700 [A], Framework-atom:  no
Pseudo Atom[   5] Name Oc       Oxidation: +0       Element: O    pdb-name: O    Scat. Types:   9   8 Mass=15.999000000 B-factor:1.000   
                 Charge=-0.450000000         Polarization=0.000000000  [A^3] (considered a charged atom and no polarization)  Interactions: yes
                 Anisotropic factor:    0.000 [-] (Relative), Radius:    0.700 [A], Framework-atom:  no
Pseudo Atom[   6] Name Oh       Oxidation: +0       Element: O    pdb-name: O    Scat. Types:   9   8 Mass=15.999000000 B-factor:1.000   
                 Charge=-0.460000000         Polarization=0.000000000  [A^3] (considered a charged atom and no polarization)  Interactions: yes
                 Anisotropic factor:    0.000 [-] (Relative), Radius:    1.000 [A], Framework-atom:  no
Pseudo Atom[   7] Name Ho       Oxidation: +0       Element: H    pdb-name: H    Scat. Types:   1   1 Mass=1.008000000  B-factor:1.000   
                 Charge=0.370000000          Polarization=0.000000000  [A^3] (considered a charged atom and no polarization)  Interactions: yes
                 Anisotropic factor:    0.000 [-] (Relative), Radius:    0.000 [A], Framework-atom:  no
Pseudo Atom[   8] Name Ow       Oxidation: +0       Element: O    pdb-name: O    Scat. Types:   9   8 Mass=15.999400000 B-factor:1.000   
                 Charge=-0.241000000         Polarization=0.000000000  [A^3] (considered a charged atom and no polarization)  Interactions: yes
                 Anisotropic factor:    0.000 [-] (Absolute), Radius:    0.500 [A], Framework-atom:  no
Pseudo Atom[   9] Name Hw       Oxidation: +0       Element: H    pdb-name: H    Scat. Types:   1   1 Mass=1.000800000  B-factor:1.000   
                 Charge=0.241000000          Polarization=0.000000000  [A^3] (considered a charged atom and no polarization)  Interactions: yes
                 Anisotropic factor:    0.000 [-] (Absolute), Radius:    1.000 [A], Framework-atom:  no
Pseudo Atom[  10] Name He       Oxidation: +0       Element: He   pdb-name: He   Scat. Types:   3   2 Mass=4.002602000  B-factor:1.000   
                 Charge=0.000000000          Polarization=0.000000000  [A^3] (considered a chargeless atom and no polarization)  Interactions: yes
                 Anisotropic factor:    0.000 [-] (Relative), Radius:    1.000 [A], Framework-atom:  no
Pseudo Atom[  11] Name Zr1      Oxidation:          Element: Zr   pdb-name: Zr   Scat. Types:  41  40 Mass=91.223647607 B-factor:0.000   
                 Charge=0.000000000  (-na-)  Polarization=17.900000000 [A^3] (considered a chargeless atom and no polarization)  Interactions: yes
                 Anisotropic factor:    0.000 [-] (Absolute), Radius:    1.640 [A], Framework-atom: yes (charge definition not found)
Pseudo Atom[  12] Name O1       Oxidation:          Element: O    pdb-name: O    Scat. Types:   9   8 Mass=15.999404927 B-factor:0.000   
                 Charge=0.000000000  (-na-)  Polarization=0.802000000  [A^3] (considered a chargeless atom and no polarization)  Interactions: yes
                 Anisotropic factor:    0.000 [-] (Absolute), Radius:    0.640 [A], Framework-atom: yes (charge definition not found)
Pseudo Atom[  13] Name O2       Oxidation:          Element: O    pdb-name: O    Scat. Types:   9   8 Mass=15.999404927 B-factor:0.000   
                 Charge=0.000000000  (-na-)  Polarization=0.802000000  [A^3] (considered a chargeless atom and no polarization)  Interactions: yes
                 Anisotropic factor:    0.000 [-] (Absolute), Radius:    0.640 [A], Framework-atom: yes (charge definition not found)
Pseudo Atom[  14] Name O3       Oxidation:          Element: O    pdb-name: O    Scat. Types:   9   8 Mass=15.999404927 B-factor:0.000   
                 Charge=0.000000000  (-na-)  Polarization=0.802000000  [A^3] (considered a chargeless atom and no polarization)  Interactions: yes
                 Anisotropic factor:    0.000 [-] (Absolute), Radius:    0.640 [A], Framework-atom: yes (charge definition not found)
Pseudo Atom[  15] Name O4       Oxidation:          Element: O    pdb-name: O    Scat. Types:   9   8 Mass=15.999404927 B-factor:0.000   
                 Charge=0.000000000  (-na-)  Polarization=0.802000000  [A^3] (considered a chargeless atom and no polarization)  Interactions: yes
                 Anisotropic factor:    0.000 [-] (Absolute), Radius:    0.640 [A], Framework-atom: yes (charge definition not found)
Pseudo Atom[  16] Name O5       Oxidation:          Element: O    pdb-name: O    Scat. Types:   9   8 Mass=15.999404927 B-factor:0.000   
                 Charge=0.000000000  (-na-)  Polarization=0.802000000  [A^3] (considered a chargeless atom and no polarization)  Interactions: yes
                 Anisotropic factor:    0.000 [-] (Absolute), Radius:    0.640 [A], Framework-atom: yes (charge definition not found)
Pseudo Atom[  17] Name O6       Oxidation:          Element: O    pdb-name: O    Scat. Types:   9   8 Mass=15.999404927 B-factor:0.000   
                 Charge=0.000000000  (-na-)  Polarization=0.802000000  [A^3] (considered a chargeless atom and no polarization)  Interactions: yes
                 Anisotropic factor:    0.000 [-] (Absolute), Radius:    0.640 [A], Framework-atom: yes (charge definition not found)
Pseudo Atom[  18] Name C1       Oxidation:          Element: C    pdb-name: C    Scat. Types:   7   6 Mass=12.010735897 B-factor:0.000   
                 Charge=0.000000000  (-na-)  Polarization=1.760000000  [A^3] (considered a chargeless atom and no polarization)  Interactions: yes
                 Anisotropic factor:    0.000 [-] (Absolute), Radius:    0.750 [A], Framework-atom: yes (charge definition not found)
Pseudo Atom[  19] Name C2       Oxidation:          Element: C    pdb-name: C    Scat. Types:   7   6 Mass=12.010735897 B-factor:0.000   
                 Charge=0.000000000  (-na-)  Polarization=1.760000000  [A^3] (considered a chargeless atom and no polarization)  Interactions: yes
                 Anisotropic factor:    0.000 [-] (Absolute), Radius:    0.750 [A], Framework-atom: yes (charge definition not found)
Pseudo Atom[  20] Name H2A      Oxidation:          Element: H    pdb-name: H    Scat. Types:   1   1 Mass=1.007940754  B-factor:0.000   
                 Charge=0.000000000  (-na-)  Polarization=0.666793000  [A^3] (considered a chargeless atom and no polarization)  Interactions: yes
                 Anisotropic factor:    0.000 [-] (Absolute), Radius:    0.320 [A], Framework-atom: yes (charge definition not found)
Pseudo Atom[  21] Name H2B      Oxidation:          Element: H    pdb-name: H    Scat. Types:   1   1 Mass=1.007940754  B-factor:0.000   
                 Charge=0.000000000  (-na-)  Polarization=0.666793000  [A^3] (considered a chargeless atom and no polarization)  Interactions: yes
                 Anisotropic factor:    0.000 [-] (Absolute), Radius:    0.320 [A], Framework-atom: yes (charge definition not found)
Pseudo Atom[  22] Name N1       Oxidation:          Element: N    pdb-name: N    Scat. Types:   8   7 Mass=14.006703212 B-factor:0.000   
                 Charge=0.000000000  (-na-)  Polarization=1.100000000  [A^3] (considered a chargeless atom and no polarization)  Interactions: yes
                 Anisotropic factor:    0.000 [-] (Absolute), Radius:    0.710 [A], Framework-atom: yes (charge definition not found)
Pseudo Atom[  23] Name H1A      Oxidation:          Element: H    pdb-name: H    Scat. Types:   1   1 Mass=1.007940754  B-factor:0.000   
                 Charge=0.000000000  (-na-)  Polarization=0.666793000  [A^3] (considered a chargeless atom and no polarization)  Interactions: yes
                 Anisotropic factor:    0.000 [-] (Absolute), Radius:    0.320 [A], Framework-atom: yes (charge definition not found)
Pseudo Atom[  24] Name H1B      Oxidation:          Element: H    pdb-name: H    Scat. Types:   1   1 Mass=1.007940754  B-factor:0.000   
                 Charge=0.000000000  (-na-)  Polarization=0.666793000  [A^3] (considered a chargeless atom and no polarization)  Interactions: yes
                 Anisotropic factor:    0.000 [-] (Absolute), Radius:    0.320 [A], Framework-atom: yes (charge definition not found)
Pseudo Atom[  25] Name H1C      Oxidation:          Element: H    pdb-name: H    Scat. Types:   1   1 Mass=1.007940754  B-factor:0.000   
                 Charge=0.000000000  (-na-)  Polarization=0.666793000  [A^3] (considered a chargeless atom and no polarization)  Interactions: yes
                 Anisotropic factor:    0.000 [-] (Absolute), Radius:    0.320 [A], Framework-atom: yes (charge definition not found)
Pseudo Atom[  26] Name N2       Oxidation:          Element: N    pdb-name: N    Scat. Types:   8   7 Mass=14.006703212 B-factor:0.000   
                 Charge=0.000000000  (-na-)  Polarization=1.100000000  [A^3] (considered a chargeless atom and no polarization)  Interactions: yes
                 Anisotropic factor:    0.000 [-] (Absolute), Radius:    0.710 [A], Framework-atom: yes (charge definition not found)
Pseudo Atom[  27] Name H2C      Oxidation:          Element: H    pdb-name: H    Scat. Types:   1   1 Mass=1.007940754  B-factor:0.000   
                 Charge=0.000000000  (-na-)  Polarization=0.666793000  [A^3] (considered a chargeless atom and no polarization)  Interactions: yes
                 Anisotropic factor:    0.000 [-] (Absolute), Radius:    0.320 [A], Framework-atom: yes (charge definition not found)
Pseudo Atom[  28] Name H2D      Oxidation:          Element: H    pdb-name: H    Scat. Types:   1   1 Mass=1.007940754  B-factor:0.000   
                 Charge=0.000000000  (-na-)  Polarization=0.666793000  [A^3] (considered a chargeless atom and no polarization)  Interactions: yes
                 Anisotropic factor:    0.000 [-] (Absolute), Radius:    0.320 [A], Framework-atom: yes (charge definition not found)
Pseudo Atom[  29] Name H2E      Oxidation:          Element: H    pdb-name: H    Scat. Types:   1   1 Mass=1.007940754  B-factor:0.000   
                 Charge=0.000000000  (-na-)  Polarization=0.666793000  [A^3] (considered a chargeless atom and no polarization)  Interactions: yes
                 Anisotropic factor:    0.000 [-] (Absolute), Radius:    0.320 [A], Framework-atom: yes (charge definition not found)
Pseudo Atom[  30] Name C3       Oxidation:          Element: C    pdb-name: C    Scat. Types:   7   6 Mass=12.010735897 B-factor:0.000   
                 Charge=0.000000000  (-na-)  Polarization=1.760000000  [A^3] (considered a chargeless atom and no polarization)  Interactions: yes
                 Anisotropic factor:    0.000 [-] (Absolute), Radius:    0.750 [A], Framework-atom: yes (charge definition not found)
Pseudo Atom[  31] Name C4       Oxidation:          Element: C    pdb-name: C    Scat. Types:   7   6 Mass=12.010735897 B-factor:0.000   
                 Charge=0.000000000  (-na-)  Polarization=1.760000000  [A^3] (considered a chargeless atom and no polarization)  Interactions: yes
                 Anisotropic factor:    0.000 [-] (Absolute), Radius:    0.750 [A], Framework-atom: yes (charge definition not found)
Pseudo Atom[  32] Name H4A      Oxidation:          Element: H    pdb-name: H    Scat. Types:   1   1 Mass=1.007940754  B-factor:0.000   
                 Charge=0.000000000  (-na-)  Polarization=0.666793000  [A^3] (considered a chargeless atom and no polarization)  Interactions: yes
                 Anisotropic factor:    0.000 [-] (Absolute), Radius:    0.320 [A], Framework-atom: yes (charge definition not found)
Pseudo Atom[  33] Name H4B      Oxidation:          Element: H    pdb-name: H    Scat. Types:   1   1 Mass=1.007940754  B-factor:0.000   
                 Charge=0.000000000  (-na-)  Polarization=0.666793000  [A^3] (considered a chargeless atom and no polarization)  Interactions: yes
                 Anisotropic factor:    0.000 [-] (Absolute), Radius:    0.320 [A], Framework-atom: yes (charge definition not found)
Pseudo Atom[  34] Name N3       Oxidation:          Element: N    pdb-name: N    Scat. Types:   8   7 Mass=14.006703212 B-factor:0.000   
                 Charge=0.000000000  (-na-)  Polarization=1.100000000  [A^3] (considered a chargeless atom and no polarization)  Interactions: yes
                 Anisotropic factor:    0.000 [-] (Absolute), Radius:    0.710 [A], Framework-atom: yes (charge definition not found)
Pseudo Atom[  35] Name H3C      Oxidation:          Element: H    pdb-name: H    Scat. Types:   1   1 Mass=1.007940754  B-factor:0.000   
                 Charge=0.000000000  (-na-)  Polarization=0.666793000  [A^3] (considered a chargeless atom and no polarization)  Interactions: yes
                 Anisotropic factor:    0.000 [-] (Absolute), Radius:    0.320 [A], Framework-atom: yes (charge definition not found)
Pseudo Atom[  36] Name H3D      Oxidation:          Element: H    pdb-name: H    Scat. Types:   1   1 Mass=1.007940754  B-factor:0.000   
                 Charge=0.000000000  (-na-)  Polarization=0.666793000  [A^3] (considered a chargeless atom and no polarization)  Interactions: yes
                 Anisotropic factor:    0.000 [-] (Absolute), Radius:    0.320 [A], Framework-atom: yes (charge definition not found)
Pseudo Atom[  37] Name H3E      Oxidation:          Element: H    pdb-name: H    Scat. Types:   1   1 Mass=1.007940754  B-factor:0.000   
                 Charge=0.000000000  (-na-)  Polarization=0.666793000  [A^3] (considered a chargeless atom and no polarization)  Interactions: yes
                 Anisotropic factor:    0.000 [-] (Absolute), Radius:    0.320 [A], Framework-atom: yes (charge definition not found)
Pseudo Atom[  38] Name N4       Oxidation:          Element: N    pdb-name: N    Scat. Types:   8   7 Mass=14.006703212 B-factor:0.000   
                 Charge=0.000000000  (-na-)  Polarization=1.100000000  [A^3] (considered a chargeless atom and no polarization)  Interactions: yes
                 Anisotropic factor:    0.000 [-] (Absolute), Radius:    0.710 [A], Framework-atom: yes (charge definition not found)
Pseudo Atom[  39] Name H4C      Oxidation:          Element: H    pdb-name: H    Scat. Types:   1   1 Mass=1.007940754  B-factor:0.000   
                 Charge=0.000000000  (-na-)  Polarization=0.666793000  [A^3] (considered a chargeless atom and no polarization)  Interactions: yes
                 Anisotropic factor:    0.000 [-] (Absolute), Radius:    0.320 [A], Framework-atom: yes (charge definition not found)
Pseudo Atom[  40] Name H4D      Oxidation:          Element: H    pdb-name: H    Scat. Types:   1   1 Mass=1.007940754  B-factor:0.000   
                 Charge=0.000000000  (-na-)  Polarization=0.666793000  [A^3] (considered a chargeless atom and no polarization)  Interactions: yes
                 Anisotropic factor:    0.000 [-] (Absolute), Radius:    0.320 [A], Framework-atom: yes (charge definition not found)
Pseudo Atom[  41] Name H4E      Oxidation:          Element: H    pdb-name: H    Scat. Types:   1   1 Mass=1.007940754  B-factor:0.000   
                 Charge=0.000000000  (-na-)  Polarization=0.666793000  [A^3] (considered a chargeless atom and no polarization)  Interactions: yes
                 Anisotropic factor:    0.000 [-] (Absolute), Radius:    0.320 [A], Framework-atom: yes (charge definition not found)


Forcefield: local
===========================================================================
Minimal distance: 1
CutOff VDW : 12.000000 (144.000000)
CutOff VDW switching on: 10.800000 (116.640000)
CutOff charge-charge : 12.000000 (144.000000)
CutOff charge-charge switching on: 7.800000 (60.840000)
CutOff charge-bonddipole : 12.000000 (144.000000)
CutOff charge-bondipole switching on: 8.400000 (70.560000)
CutOff bonddipole-bonddipole : 12.000000 (144.000000)
CutOff bonddipole-bondipole switching on: 9.000000 (81.000000)
Polarization is neglected
All potentials are shifted to zero at the Cutoff

General mixing rule: Lorentz-Berthelot mixing rules are used FIRST for cross terms
0 cross terms are overwritten using the individual mixing rules from the file 'force_field_mixing_rules.def'
and then 0 terms are overwritten using the specific interactions from the file 'force_field.def'

The force field and all the interactions:
    CF3 -     CF3 [LENNARD_JONES] p_0/k_B:  87.00000 [K], p_1: 4.36000 [A], shift/k_B:  -0.79874920 [K], tailcorrection: no
    CF3 -     CF2 [LENNARD_JONES] p_0/k_B:  48.91319 [K], p_1: 4.54500 [A], shift/k_B:  -0.57586128 [K], tailcorrection: no
    CF3 -    CF21 [LENNARD_JONES] p_0/k_B:  48.91319 [K], p_1: 4.54500 [A], shift/k_B:  -0.57586128 [K], tailcorrection: no
    CF3 -      Co [LENNARD_JONES] p_0/k_B:  59.72437 [K], p_1: 4.13000 [A], shift/k_B:  -0.39637113 [K], tailcorrection: no
    CF3 -      Oc [LENNARD_JONES] p_0/k_B:  82.90356 [K], p_1: 3.70500 [A], shift/k_B:  -0.28701103 [K], tailcorrection: no
    CF3 -      Oh [LENNARD_JONES] p_0/k_B:  89.94999 [K], p_1: 3.69000 [A], shift/k_B:  -0.30392365 [K], tailcorrection: no
    CF3 -      Ho [ZERO_POTENTIAL]
    CF3 -      Ow [LENNARD_JONES] p_0/k_B:  64.72831 [K], p_1: 3.69658 [A], shift/k_B:  -0.22105110 [K], tailcorrection: no
    CF3 -      Hw [ZERO_POTENTIAL]
    CF3 -      He [LENNARD_JONES] p_0/k_B:  30.79448 [K], p_1: 3.50000 [A], shift/k_B:  -0.07578552 [K], tailcorrection: no
    CF3 -     Zr1 [LENNARD_JONES] p_0/k_B:  54.96201 [K], p_1: 3.57159 [A], shift/k_B:  -0.15272111 [K], tailcorrection: no
    CF3 -      O1 [LENNARD_JONES] p_0/k_B:  64.72831 [K], p_1: 3.69658 [A], shift/k_B:  -0.22105110 [K], tailcorrection: no
    CF3 -      O2 [LENNARD_JONES] p_0/k_B:  64.72831 [K], p_1: 3.69658 [A], shift/k_B:  -0.22105110 [K], tailcorrection: no
    CF3 -      O3 [LENNARD_JONES] p_0/k_B:  64.72831 [K], p_1: 3.69658 [A], shift/k_B:  -0.22105110 [K], tailcorrection: no
    CF3 -      O4 [LENNARD_JONES] p_0/k_B:  64.72831 [K], p_1: 3.69658 [A], shift/k_B:  -0.22105110 [K], tailcorrection: no
    CF3 -      O5 [LENNARD_JONES] p_0/k_B:  64.72831 [K], p_1: 3.69658 [A], shift/k_B:  -0.22105110 [K], tailcorrection: no
    CF3 -      O6 [LENNARD_JONES] p_0/k_B:  64.72831 [K], p_1: 3.69658 [A], shift/k_B:  -0.22105110 [K], tailcorrection: no
    CF3 -      C1 [LENNARD_JONES] p_0/k_B:  64.52511 [K], p_1: 3.91650 [A], shift/k_B:  -0.31157419 [K], tailcorrection: no
    CF3 -      C2 [LENNARD_JONES] p_0/k_B:  64.52511 [K], p_1: 3.91650 [A], shift/k_B:  -0.31157419 [K], tailcorrection: no
    CF3 -     H2A [LENNARD_JONES] p_0/k_B:  25.79645 [K], p_1: 3.60321 [A], shift/k_B:  -0.07557036 [K], tailcorrection: no
    CF3 -     H2B [LENNARD_JONES] p_0/k_B:  25.79645 [K], p_1: 3.60321 [A], shift/k_B:  -0.07557036 [K], tailcorrection: no
    CF3 -      N1 [LENNARD_JONES] p_0/k_B:  58.21151 [K], p_1: 3.81128 [A], shift/k_B:  -0.23875943 [K], tailcorrection: no
    CF3 -     H1A [LENNARD_JONES] p_0/k_B:  25.79645 [K], p_1: 3.60321 [A], shift/k_B:  -0.07557036 [K], tailcorrection: no
    CF3 -     H1B [LENNARD_JONES] p_0/k_B:  25.79645 [K], p_1: 3.60321 [A], shift/k_B:  -0.07557036 [K], tailcorrection: no
    CF3 -     H1C [LENNARD_JONES] p_0/k_B:  25.79645 [K], p_1: 3.60321 [A], shift/k_B:  -0.07557036 [K], tailcorrection: no
    CF3 -      N2 [LENNARD_JONES] p_0/k_B:  58.21151 [K], p_1: 3.81128 [A], shift/k_B:  -0.23875943 [K], tailcorrection: no
    CF3 -     H2C [LENNARD_JONES] p_0/k_B:  25.79645 [K], p_1: 3.60321 [A], shift/k_B:  -0.07557036 [K], tailcorrection: no
    CF3 -     H2D [LENNARD_JONES] p_0/k_B:  25.79645 [K], p_1: 3.60321 [A], shift/k_B:  -0.07557036 [K], tailcorrection: no
    CF3 -     H2E [LENNARD_JONES] p_0/k_B:  25.79645 [K], p_1: 3.60321 [A], shift/k_B:  -0.07557036 [K], tailcorrection: no
    CF3 -      C3 [LENNARD_JONES] p_0/k_B:  64.52511 [K], p_1: 3.91650 [A], shift/k_B:  -0.31157419 [K], tailcorrection: no
    CF3 -      C4 [LENNARD_JONES] p_0/k_B:  64.52511 [K], p_1: 3.91650 [A], shift/k_B:  -0.31157419 [K], tailcorrection: no
    CF3 -     H4A [LENNARD_JONES] p_0/k_B:  25.79645 [K], p_1: 3.60321 [A], shift/k_B:  -0.07557036 [K], tailcorrection: no
    CF3 -     H4B [LENNARD_JONES] p_0/k_B:  25.79645 [K], p_1: 3.60321 [A], shift/k_B:  -0.07557036 [K], tailcorrection: no
    CF3 -      N3 [LENNARD_JONES] p_0/k_B:  58.21151 [K], p_1: 3.81128 [A], shift/k_B:  -0.23875943 [K], tailcorrection: no
    CF3 -     H3C [LENNARD_JONES] p_0/k_B:  25.79645 [K], p_1: 3.60321 [A], shift/k_B:  -0.07557036 [K], tailcorrection: no
    CF3 -     H3D [LENNARD_JONES] p_0/k_B:  25.79645 [K], p_1: 3.60321 [A], shift/k_B:  -0.07557036 [K], tailcorrection: no
    CF3 -     H3E [LENNARD_JONES] p_0/k_B:  25.79645 [K], p_1: 3.60321 [A], shift/k_B:  -0.07557036 [K], tailcorrection: no
    CF3 -      N4 [LENNARD_JONES] p_0/k_B:  58.21151 [K], p_1: 3.81128 [A], shift/k_B:  -0.23875943 [K], tailcorrection: no
    CF3 -     H4C [LENNARD_JONES] p_0/k_B:  25.79645 [K], p_1: 3.60321 [A], shift/k_B:  -0.07557036 [K], tailcorrection: no
    CF3 -     H4D [LENNARD_JONES] p_0/k_B:  25.79645 [K], p_1: 3.60321 [A], shift/k_B:  -0.07557036 [K], tailcorrection: no
    CF3 -     H4E [LENNARD_JONES] p_0/k_B:  25.79645 [K], p_1: 3.60321 [A], shift/k_B:  -0.07557036 [K], tailcorrection: no
    CF2 -     CF2 [LENNARD_JONES] p_0/k_B:  27.50000 [K], p_1: 4.73000 [A], shift/k_B:  -0.41099847 [K], tailcorrection: no
    CF2 -    CF21 [LENNARD_JONES] p_0/k_B:  27.50000 [K], p_1: 4.73000 [A], shift/k_B:  -0.41099847 [K], tailcorrection: no
    CF2 -      Co [LENNARD_JONES] p_0/k_B:  33.57827 [K], p_1: 4.31500 [A], shift/k_B:  -0.28971819 [K], tailcorrection: no
    CF2 -      Oc [LENNARD_JONES] p_0/k_B:  46.61008 [K], p_1: 3.89000 [A], shift/k_B:  -0.21609552 [K], tailcorrection: no
    CF2 -      Oh [LENNARD_JONES] p_0/k_B:  50.57173 [K], p_1: 3.87500 [A], shift/k_B:  -0.22909620 [K], tailcorrection: no
    CF2 -      Ho [ZERO_POTENTIAL]
    CF2 -      Ow [LENNARD_JONES] p_0/k_B:  36.39159 [K], p_1: 3.88158 [A], shift/k_B:  -0.16654197 [K], tailcorrection: no
    CF2 -      Hw [ZERO_POTENTIAL]
    CF2 -      He [LENNARD_JONES] p_0/k_B:  17.31329 [K], p_1: 3.68500 [A], shift/k_B:  -0.05802468 [K], tailcorrection: no
    CF2 -     Zr1 [LENNARD_JONES] p_0/k_B:  30.90077 [K], p_1: 3.75659 [A], shift/k_B:  -0.11622304 [K], tailcorrection: no
    CF2 -      O1 [LENNARD_JONES] p_0/k_B:  36.39159 [K], p_1: 3.88158 [A], shift/k_B:  -0.16654197 [K], tailcorrection: no
    CF2 -      O2 [LENNARD_JONES] p_0/k_B:  36.39159 [K], p_1: 3.88158 [A], shift/k_B:  -0.16654197 [K], tailcorrection: no
    CF2 -      O3 [LENNARD_JONES] p_0/k_B:  36.39159 [K], p_1: 3.88158 [A], shift/k_B:  -0.16654197 [K], tailcorrection: no
    CF2 -      O4 [LENNARD_JONES] p_0/k_B:  36.39159 [K], p_1: 3.88158 [A], shift/k_B:  -0.16654197 [K], tailcorrection: no
    CF2 -      O5 [LENNARD_JONES] p_0/k_B:  36.39159 [K], p_1: 3.88158 [A], shift/k_B:  -0.16654197 [K], tailcorrection: no
    CF2 -      O6 [LENNARD_JONES] p_0/k_B:  36.39159 [K], p_1: 3.88158 [A], shift/k_B:  -0.16654197 [K], tailcorrection: no
    CF2 -      C1 [LENNARD_JONES] p_0/k_B:  36.27734 [K], p_1: 4.10149 [A], shift/k_B:  -0.23097669 [K], tailcorrection: no
    CF2 -      C2 [LENNARD_JONES] p_0/k_B:  36.27734 [K], p_1: 4.10149 [A], shift/k_B:  -0.23097669 [K], tailcorrection: no
    CF2 -     H2A [LENNARD_JONES] p_0/k_B:  14.50330 [K], p_1: 3.78821 [A], shift/k_B:  -0.05736057 [K], tailcorrection: no
    CF2 -     H2B [LENNARD_JONES] p_0/k_B:  14.50330 [K], p_1: 3.78821 [A], shift/k_B:  -0.05736057 [K], tailcorrection: no
    CF2 -      N1 [LENNARD_JONES] p_0/k_B:  32.72771 [K], p_1: 3.99628 [A], shift/k_B:  -0.17833261 [K], tailcorrection: no
    CF2 -     H1A [LENNARD_JONES] p_0/k_B:  14.50330 [K], p_1: 3.78821 [A], shift/k_B:  -0.05736057 [K], tailcorrection: no
    CF2 -     H1B [LENNARD_JONES] p_0/k_B:  14.50330 [K], p_1: 3.78821 [A], shift/k_B:  -0.05736057 [K], tailcorrection: no
    CF2 -     H1C [LENNARD_JONES] p_0/k_B:  14.50330 [K], p_1: 3.78821 [A], shift/k_B:  -0.05736057 [K], tailcorrection: no
    CF2 -      N2 [LENNARD_JONES] p_0/k_B:  32.72771 [K], p_1: 3.99628 [A], shift/k_B:  -0.17833261 [K], tailcorrection: no
    CF2 -     H2C [LENNARD_JONES] p_0/k_B:  14.50330 [K], p_1: 3.78821 [A], shift/k_B:  -0.05736057 [K], tailcorrection: no
    CF2 -     H2D [LENNARD_JONES] p_0/k_B:  14.50330 [K], p_1: 3.78821 [A], shift/k_B:  -0.05736057 [K], tailcorrection: no
    CF2 -     H2E [LENNARD_JONES] p_0/k_B:  14.50330 [K], p_1: 3.78821 [A], shift/k_B:  -0.05736057 [K], tailcorrection: no
    CF2 -      C3 [LENNARD_JONES] p_0/k_B:  36.27734 [K], p_1: 4.10149 [A], shift/k_B:  -0.23097669 [K], tailcorrection: no
    CF2 -      C4 [LENNARD_JONES] p_0/k_B:  36.27734 [K], p_1: 4.10149 [A], shift/k_B:  -0.23097669 [K], tailcorrection: no
    CF2 -     H4A [LENNARD_JONES] p_0/k_B:  14.50330 [K], p_1: 3.78821 [A], shift/k_B:  -0.05736057 [K], tailcorrection: no
    CF2 -     H4B [LENNARD_JONES] p_0/k_B:  14.50330 [K], p_1: 3.78821 [A], shift/k_B:  -0.05736057 [K], tailcorrection: no
    CF2 -      N3 [LENNARD_JONES] p_0/k_B:  32.72771 [K], p_1: 3.99628 [A], shift/k_B:  -0.17833261 [K], tailcorrection: no
    CF2 -     H3C [LENNARD_JONES] p_0/k_B:  14.50330 [K], p_1: 3.78821 [A], shift/k_B:  -0.05736057 [K], tailcorrection: no
    CF2 -     H3D [LENNARD_JONES] p_0/k_B:  14.50330 [K], p_1: 3.78821 [A], shift/k_B:  -0.05736057 [K], tailcorrection: no
    CF2 -     H3E [LENNARD_JONES] p_0/k_B:  14.50330 [K], p_1: 3.78821 [A], shift/k_B:  -0.05736057 [K], tailcorrection: no
    CF2 -      N4 [LENNARD_JONES] p_0/k_B:  32.72771 [K], p_1: 3.99628 [A], shift/k_B:  -0.17833261 [K], tailcorrection: no
    CF2 -     H4C [LENNARD_JONES] p_0/k_B:  14.50330 [K], p_1: 3.78821 [A], shift/k_B:  -0.05736057 [K], tailcorrection: no
    CF2 -     H4D [LENNARD_JONES] p_0/k_B:  14.50330 [K], p_1: 3.78821 [A], shift/k_B:  -0.05736057 [K], tailcorrection: no
    CF2 -     H4E [LENNARD_JONES] p_0/k_B:  14.50330 [K], p_1: 3.78821 [A], shift/k_B:  -0.05736057 [K], tailcorrection: no
   CF21 -    CF21 [LENNARD_JONES] p_0/k_B:  27.50000 [K], p_1: 4.73000 [A], shift/k_B:  -0.41099847 [K], tailcorrection: no
   CF21 -      Co [LENNARD_JONES] p_0/k_B:  33.57827 [K], p_1: 4.31500 [A], shift/k_B:  -0.28971819 [K], tailcorrection: no
   CF21 -      Oc [LENNARD_JONES] p_0/k_B:  46.61008 [K], p_1: 3.89000 [A], shift/k_B:  -0.21609552 [K], tailcorrection: no
   CF21 -      Oh [LENNARD_JONES] p_0/k_B:  50.57173 [K], p_1: 3.87500 [A], shift/k_B:  -0.22909620 [K], tailcorrection: no
   CF21 -      Ho [ZERO_POTENTIAL]
   CF21 -      Ow [LENNARD_JONES] p_0/k_B:  36.39159 [K], p_1: 3.88158 [A], shift/k_B:  -0.16654197 [K], tailcorrection: no
   CF21 -      Hw [ZERO_POTENTIAL]
   CF21 -      He [LENNARD_JONES] p_0/k_B:  17.31329 [K], p_1: 3.68500 [A], shift/k_B:  -0.05802468 [K], tailcorrection: no
   CF21 -     Zr1 [LENNARD_JONES] p_0/k_B:  30.90077 [K], p_1: 3.75659 [A], shift/k_B:  -0.11622304 [K], tailcorrection: no
   CF21 -      O1 [LENNARD_JONES] p_0/k_B:  36.39159 [K], p_1: 3.88158 [A], shift/k_B:  -0.16654197 [K], tailcorrection: no
   CF21 -      O2 [LENNARD_JONES] p_0/k_B:  36.39159 [K], p_1: 3.88158 [A], shift/k_B:  -0.16654197 [K], tailcorrection: no
   CF21 -      O3 [LENNARD_JONES] p_0/k_B:  36.39159 [K], p_1: 3.88158 [A], shift/k_B:  -0.16654197 [K], tailcorrection: no
   CF21 -      O4 [LENNARD_JONES] p_0/k_B:  36.39159 [K], p_1: 3.88158 [A], shift/k_B:  -0.16654197 [K], tailcorrection: no
   CF21 -      O5 [LENNARD_JONES] p_0/k_B:  36.39159 [K], p_1: 3.88158 [A], shift/k_B:  -0.16654197 [K], tailcorrection: no
   CF21 -      O6 [LENNARD_JONES] p_0/k_B:  36.39159 [K], p_1: 3.88158 [A], shift/k_B:  -0.16654197 [K], tailcorrection: no
   CF21 -      C1 [LENNARD_JONES] p_0/k_B:  36.27734 [K], p_1: 4.10149 [A], shift/k_B:  -0.23097669 [K], tailcorrection: no
   CF21 -      C2 [LENNARD_JONES] p_0/k_B:  36.27734 [K], p_1: 4.10149 [A], shift/k_B:  -0.23097669 [K], tailcorrection: no
   CF21 -     H2A [LENNARD_JONES] p_0/k_B:  14.50330 [K], p_1: 3.78821 [A], shift/k_B:  -0.05736057 [K], tailcorrection: no
   CF21 -     H2B [LENNARD_JONES] p_0/k_B:  14.50330 [K], p_1: 3.78821 [A], shift/k_B:  -0.05736057 [K], tailcorrection: no
   CF21 -      N1 [LENNARD_JONES] p_0/k_B:  32.72771 [K], p_1: 3.99628 [A], shift/k_B:  -0.17833261 [K], tailcorrection: no
   CF21 -     H1A [LENNARD_JONES] p_0/k_B:  14.50330 [K], p_1: 3.78821 [A], shift/k_B:  -0.05736057 [K], tailcorrection: no
   CF21 -     H1B [LENNARD_JONES] p_0/k_B:  14.50330 [K], p_1: 3.78821 [A], shift/k_B:  -0.05736057 [K], tailcorrection: no
   CF21 -     H1C [LENNARD_JONES] p_0/k_B:  14.50330 [K], p_1: 3.78821 [A], shift/k_B:  -0.05736057 [K], tailcorrection: no
   CF21 -      N2 [LENNARD_JONES] p_0/k_B:  32.72771 [K], p_1: 3.99628 [A], shift/k_B:  -0.17833261 [K], tailcorrection: no
   CF21 -     H2C [LENNARD_JONES] p_0/k_B:  14.50330 [K], p_1: 3.78821 [A], shift/k_B:  -0.05736057 [K], tailcorrection: no
   CF21 -     H2D [LENNARD_JONES] p_0/k_B:  14.50330 [K], p_1: 3.78821 [A], shift/k_B:  -0.05736057 [K], tailcorrection: no
   CF21 -     H2E [LENNARD_JONES] p_0/k_B:  14.50330 [K], p_1: 3.78821 [A], shift/k_B:  -0.05736057 [K], tailcorrection: no
   CF21 -      C3 [LENNARD_JONES] p_0/k_B:  36.27734 [K], p_1: 4.10149 [A], shift/k_B:  -0.23097669 [K], tailcorrection: no
   CF21 -      C4 [LENNARD_JONES] p_0/k_B:  36.27734 [K], p_1: 4.10149 [A], shift/k_B:  -0.23097669 [K], tailcorrection: no
   CF21 -     H4A [LENNARD_JONES] p_0/k_B:  14.50330 [K], p_1: 3.78821 [A], shift/k_B:  -0.05736057 [K], tailcorrection: no
   CF21 -     H4B [LENNARD_JONES] p_0/k_B:  14.50330 [K], p_1: 3.78821 [A], shift/k_B:  -0.05736057 [K], tailcorrection: no
   CF21 -      N3 [LENNARD_JONES] p_0/k_B:  32.72771 [K], p_1: 3.99628 [A], shift/k_B:  -0.17833261 [K], tailcorrection: no
   CF21 -     H3C [LENNARD_JONES] p_0/k_B:  14.50330 [K], p_1: 3.78821 [A], shift/k_B:  -0.05736057 [K], tailcorrection: no
   CF21 -     H3D [LENNARD_JONES] p_0/k_B:  14.50330 [K], p_1: 3.78821 [A], shift/k_B:  -0.05736057 [K], tailcorrection: no
   CF21 -     H3E [LENNARD_JONES] p_0/k_B:  14.50330 [K], p_1: 3.78821 [A], shift/k_B:  -0.05736057 [K], tailcorrection: no
   CF21 -      N4 [LENNARD_JONES] p_0/k_B:  32.72771 [K], p_1: 3.99628 [A], shift/k_B:  -0.17833261 [K], tailcorrection: no
   CF21 -     H4C [LENNARD_JONES] p_0/k_B:  14.50330 [K], p_1: 3.78821 [A], shift/k_B:  -0.05736057 [K], tailcorrection: no
   CF21 -     H4D [LENNARD_JONES] p_0/k_B:  14.50330 [K], p_1: 3.78821 [A], shift/k_B:  -0.05736057 [K], tailcorrection: no
   CF21 -     H4E [LENNARD_JONES] p_0/k_B:  14.50330 [K], p_1: 3.78821 [A], shift/k_B:  -0.05736057 [K], tailcorrection: no
     Co -      Co [LENNARD_JONES] p_0/k_B:  41.00000 [K], p_1: 3.90000 [A], shift/k_B:  -0.19303316 [K], tailcorrection: no
     Co -      Oc [LENNARD_JONES] p_0/k_B:  56.91221 [K], p_1: 3.47500 [A], shift/k_B:  -0.13416853 [K], tailcorrection: no
     Co -      Oh [LENNARD_JONES] p_0/k_B:  61.74949 [K], p_1: 3.46000 [A], shift/k_B:  -0.14184463 [K], tailcorrection: no
     Co -      Ho [ZERO_POTENTIAL]
     Co -      Ow [LENNARD_JONES] p_0/k_B:  44.43514 [K], p_1: 3.46657 [A], shift/k_B:  -0.10324053 [K], tailcorrection: no
     Co -      Hw [ZERO_POTENTIAL]
     Co -      He [LENNARD_JONES] p_0/k_B:  21.14001 [K], p_1: 3.27000 [A], shift/k_B:  -0.03460878 [K], tailcorrection: no
     Co -     Zr1 [LENNARD_JONES] p_0/k_B:  37.73071 [K], p_1: 3.34159 [A], shift/k_B:  -0.07033637 [K], tailcorrection: no
     Co -      O1 [LENNARD_JONES] p_0/k_B:  44.43514 [K], p_1: 3.46657 [A], shift/k_B:  -0.10324053 [K], tailcorrection: no
     Co -      O2 [LENNARD_JONES] p_0/k_B:  44.43514 [K], p_1: 3.46657 [A], shift/k_B:  -0.10324053 [K], tailcorrection: no
     Co -      O3 [LENNARD_JONES] p_0/k_B:  44.43514 [K], p_1: 3.46657 [A], shift/k_B:  -0.10324053 [K], tailcorrection: no
     Co -      O4 [LENNARD_JONES] p_0/k_B:  44.43514 [K], p_1: 3.46657 [A], shift/k_B:  -0.10324053 [K], tailcorrection: no
     Co -      O5 [LENNARD_JONES] p_0/k_B:  44.43514 [K], p_1: 3.46657 [A], shift/k_B:  -0.10324053 [K], tailcorrection: no
     Co -      O6 [LENNARD_JONES] p_0/k_B:  44.43514 [K], p_1: 3.46657 [A], shift/k_B:  -0.10324053 [K], tailcorrection: no
     Co -      C1 [LENNARD_JONES] p_0/k_B:  44.29565 [K], p_1: 3.68649 [A], shift/k_B:  -0.14881620 [K], tailcorrection: no
     Co -      C2 [LENNARD_JONES] p_0/k_B:  44.29565 [K], p_1: 3.68649 [A], shift/k_B:  -0.14881620 [K], tailcorrection: no
     Co -     H2A [LENNARD_JONES] p_0/k_B:  17.70893 [K], p_1: 3.37321 [A], shift/k_B:  -0.03493098 [K], tailcorrection: no
     Co -     H2B [LENNARD_JONES] p_0/k_B:  17.70893 [K], p_1: 3.37321 [A], shift/k_B:  -0.03493098 [K], tailcorrection: no
     Co -      N1 [LENNARD_JONES] p_0/k_B:  39.96145 [K], p_1: 3.58128 [A], shift/k_B:  -0.11285906 [K], tailcorrection: no
     Co -     H1A [LENNARD_JONES] p_0/k_B:  17.70893 [K], p_1: 3.37321 [A], shift/k_B:  -0.03493098 [K], tailcorrection: no
     Co -     H1B [LENNARD_JONES] p_0/k_B:  17.70893 [K], p_1: 3.37321 [A], shift/k_B:  -0.03493098 [K], tailcorrection: no
     Co -     H1C [LENNARD_JONES] p_0/k_B:  17.70893 [K], p_1: 3.37321 [A], shift/k_B:  -0.03493098 [K], tailcorrection: no
     Co -      N2 [LENNARD_JONES] p_0/k_B:  39.96145 [K], p_1: 3.58128 [A], shift/k_B:  -0.11285906 [K], tailcorrection: no
     Co -     H2C [LENNARD_JONES] p_0/k_B:  17.70893 [K], p_1: 3.37321 [A], shift/k_B:  -0.03493098 [K], tailcorrection: no
     Co -     H2D [LENNARD_JONES] p_0/k_B:  17.70893 [K], p_1: 3.37321 [A], shift/k_B:  -0.03493098 [K], tailcorrection: no
     Co -     H2E [LENNARD_JONES] p_0/k_B:  17.70893 [K], p_1: 3.37321 [A], shift/k_B:  -0.03493098 [K], tailcorrection: no
     Co -      C3 [LENNARD_JONES] p_0/k_B:  44.29565 [K], p_1: 3.68649 [A], shift/k_B:  -0.14881620 [K], tailcorrection: no
     Co -      C4 [LENNARD_JONES] p_0/k_B:  44.29565 [K], p_1: 3.68649 [A], shift/k_B:  -0.14881620 [K], tailcorrection: no
     Co -     H4A [LENNARD_JONES] p_0/k_B:  17.70893 [K], p_1: 3.37321 [A], shift/k_B:  -0.03493098 [K], tailcorrection: no
     Co -     H4B [LENNARD_JONES] p_0/k_B:  17.70893 [K], p_1: 3.37321 [A], shift/k_B:  -0.03493098 [K], tailcorrection: no
     Co -      N3 [LENNARD_JONES] p_0/k_B:  39.96145 [K], p_1: 3.58128 [A], shift/k_B:  -0.11285906 [K], tailcorrection: no
     Co -     H3C [LENNARD_JONES] p_0/k_B:  17.70893 [K], p_1: 3.37321 [A], shift/k_B:  -0.03493098 [K], tailcorrection: no
     Co -     H3D [LENNARD_JONES] p_0/k_B:  17.70893 [K], p_1: 3.37321 [A], shift/k_B:  -0.03493098 [K], tailcorrection: no
     Co -     H3E [LENNARD_JONES] p_0/k_B:  17.70893 [K], p_1: 3.37321 [A], shift/k_B:  -0.03493098 [K], tailcorrection: no
     Co -      N4 [LENNARD_JONES] p_0/k_B:  39.96145 [K], p_1: 3.58128 [A], shift/k_B:  -0.11285906 [K], tailcorrection: no
     Co -     H4C [LENNARD_JONES] p_0/k_B:  17.70893 [K], p_1: 3.37321 [A], shift/k_B:  -0.03493098 [K], tailcorrection: no
     Co -     H4D [LENNARD_JONES] p_0/k_B:  17.70893 [K], p_1: 3.37321 [A], shift/k_B:  -0.03493098 [K], tailcorrection: no
     Co -     H4E [LENNARD_JONES] p_0/k_B:  17.70893 [K], p_1: 3.37321 [A], shift/k_B:  -0.03493098 [K], tailcorrection: no
     Oc -      Oc [LENNARD_JONES] p_0/k_B:  79.00000 [K], p_1: 3.05000 [A], shift/k_B:  -0.08516900 [K], tailcorrection: no
     Oc -      Oh [LENNARD_JONES] p_0/k_B:  85.71464 [K], p_1: 3.03500 [A], shift/k_B:  -0.08971520 [K], tailcorrection: no
     Oc -      Ho [ZERO_POTENTIAL]
     Oc -      Ow [LENNARD_JONES] p_0/k_B:  61.68055 [K], p_1: 3.04157 [A], shift/k_B:  -0.06540286 [K], tailcorrection: no
     Oc -      Hw [ZERO_POTENTIAL]
     Oc -      He [LENNARD_JONES] p_0/k_B:  29.34451 [K], p_1: 2.84500 [A], shift/k_B:  -0.02084087 [K], tailcorrection: no
     Oc -     Zr1 [LENNARD_JONES] p_0/k_B:  52.37410 [K], p_1: 2.91658 [A], shift/k_B:  -0.04317649 [K], tailcorrection: no
     Oc -      O1 [LENNARD_JONES] p_0/k_B:  61.68055 [K], p_1: 3.04157 [A], shift/k_B:  -0.06540286 [K], tailcorrection: no
     Oc -      O2 [LENNARD_JONES] p_0/k_B:  61.68055 [K], p_1: 3.04157 [A], shift/k_B:  -0.06540286 [K], tailcorrection: no
     Oc -      O3 [LENNARD_JONES] p_0/k_B:  61.68055 [K], p_1: 3.04157 [A], shift/k_B:  -0.06540286 [K], tailcorrection: no
     Oc -      O4 [LENNARD_JONES] p_0/k_B:  61.68055 [K], p_1: 3.04157 [A], shift/k_B:  -0.06540286 [K], tailcorrection: no
     Oc -      O5 [LENNARD_JONES] p_0/k_B:  61.68055 [K], p_1: 3.04157 [A], shift/k_B:  -0.06540286 [K], tailcorrection: no
     Oc -      O6 [LENNARD_JONES] p_0/k_B:  61.68055 [K], p_1: 3.04157 [A], shift/k_B:  -0.06540286 [K], tailcorrection: no
     Oc -      C1 [LENNARD_JONES] p_0/k_B:  61.48691 [K], p_1: 3.26150 [A], shift/k_B:  -0.09910153 [K], tailcorrection: no
     Oc -      C2 [LENNARD_JONES] p_0/k_B:  61.48691 [K], p_1: 3.26150 [A], shift/k_B:  -0.09910153 [K], tailcorrection: no
     Oc -     H2A [LENNARD_JONES] p_0/k_B:  24.58181 [K], p_1: 2.94821 [A], shift/k_B:  -0.02161929 [K], tailcorrection: no
     Oc -     H2B [LENNARD_JONES] p_0/k_B:  24.58181 [K], p_1: 2.94821 [A], shift/k_B:  -0.02161929 [K], tailcorrection: no
     Oc -      N1 [LENNARD_JONES] p_0/k_B:  55.47059 [K], p_1: 3.15628 [A], shift/k_B:  -0.07344203 [K], tailcorrection: no
     Oc -     H1A [LENNARD_JONES] p_0/k_B:  24.58181 [K], p_1: 2.94821 [A], shift/k_B:  -0.02161929 [K], tailcorrection: no
     Oc -     H1B [LENNARD_JONES] p_0/k_B:  24.58181 [K], p_1: 2.94821 [A], shift/k_B:  -0.02161929 [K], tailcorrection: no
     Oc -     H1C [LENNARD_JONES] p_0/k_B:  24.58181 [K], p_1: 2.94821 [A], shift/k_B:  -0.02161929 [K], tailcorrection: no
     Oc -      N2 [LENNARD_JONES] p_0/k_B:  55.47059 [K], p_1: 3.15628 [A], shift/k_B:  -0.07344203 [K], tailcorrection: no
     Oc -     H2C [LENNARD_JONES] p_0/k_B:  24.58181 [K], p_1: 2.94821 [A], shift/k_B:  -0.02161929 [K], tailcorrection: no
     Oc -     H2D [LENNARD_JONES] p_0/k_B:  24.58181 [K], p_1: 2.94821 [A], shift/k_B:  -0.02161929 [K], tailcorrection: no
     Oc -     H2E [LENNARD_JONES] p_0/k_B:  24.58181 [K], p_1: 2.94821 [A], shift/k_B:  -0.02161929 [K], tailcorrection: no
     Oc -      C3 [LENNARD_JONES] p_0/k_B:  61.48691 [K], p_1: 3.26150 [A], shift/k_B:  -0.09910153 [K], tailcorrection: no
     Oc -      C4 [LENNARD_JONES] p_0/k_B:  61.48691 [K], p_1: 3.26150 [A], shift/k_B:  -0.09910153 [K], tailcorrection: no
     Oc -     H4A [LENNARD_JONES] p_0/k_B:  24.58181 [K], p_1: 2.94821 [A], shift/k_B:  -0.02161929 [K], tailcorrection: no
     Oc -     H4B [LENNARD_JONES] p_0/k_B:  24.58181 [K], p_1: 2.94821 [A], shift/k_B:  -0.02161929 [K], tailcorrection: no
     Oc -      N3 [LENNARD_JONES] p_0/k_B:  55.47059 [K], p_1: 3.15628 [A], shift/k_B:  -0.07344203 [K], tailcorrection: no
     Oc -     H3C [LENNARD_JONES] p_0/k_B:  24.58181 [K], p_1: 2.94821 [A], shift/k_B:  -0.02161929 [K], tailcorrection: no
     Oc -     H3D [LENNARD_JONES] p_0/k_B:  24.58181 [K], p_1: 2.94821 [A], shift/k_B:  -0.02161929 [K], tailcorrection: no
     Oc -     H3E [LENNARD_JONES] p_0/k_B:  24.58181 [K], p_1: 2.94821 [A], shift/k_B:  -0.02161929 [K], tailcorrection: no
     Oc -      N4 [LENNARD_JONES] p_0/k_B:  55.47059 [K], p_1: 3.15628 [A], shift/k_B:  -0.07344203 [K], tailcorrection: no
     Oc -     H4C [LENNARD_JONES] p_0/k_B:  24.58181 [K], p_1: 2.94821 [A], shift/k_B:  -0.02161929 [K], tailcorrection: no
     Oc -     H4D [LENNARD_JONES] p_0/k_B:  24.58181 [K], p_1: 2.94821 [A], shift/k_B:  -0.02161929 [K], tailcorrection: no
     Oc -     H4E [LENNARD_JONES] p_0/k_B:  24.58181 [K], p_1: 2.94821 [A], shift/k_B:  -0.02161929 [K], tailcorrection: no
     Oh -      Oh [LENNARD_JONES] p_0/k_B:  93.00000 [K], p_1: 3.02000 [A], shift/k_B:  -0.09449020 [K], tailcorrection: no
     Oh -      Ho [ZERO_POTENTIAL]
     Oh -      Ow [LENNARD_JONES] p_0/k_B:  66.92311 [K], p_1: 3.02658 [A], shift/k_B:  -0.06888830 [K], tailcorrection: no
     Oh -      Hw [ZERO_POTENTIAL]
     Oh -      He [LENNARD_JONES] p_0/k_B:  31.83866 [K], p_1: 2.83000 [A], shift/k_B:  -0.02190641 [K], tailcorrection: no
     Oh -     Zr1 [LENNARD_JONES] p_0/k_B:  56.82566 [K], p_1: 2.90158 [A], shift/k_B:  -0.04541946 [K], tailcorrection: no
     Oh -      O1 [LENNARD_JONES] p_0/k_B:  66.92311 [K], p_1: 3.02658 [A], shift/k_B:  -0.06888830 [K], tailcorrection: no
     Oh -      O2 [LENNARD_JONES] p_0/k_B:  66.92311 [K], p_1: 3.02658 [A], shift/k_B:  -0.06888830 [K], tailcorrection: no
     Oh -      O3 [LENNARD_JONES] p_0/k_B:  66.92311 [K], p_1: 3.02658 [A], shift/k_B:  -0.06888830 [K], tailcorrection: no
     Oh -      O4 [LENNARD_JONES] p_0/k_B:  66.92311 [K], p_1: 3.02658 [A], shift/k_B:  -0.06888830 [K], tailcorrection: no
     Oh -      O5 [LENNARD_JONES] p_0/k_B:  66.92311 [K], p_1: 3.02658 [A], shift/k_B:  -0.06888830 [K], tailcorrection: no
     Oh -      O6 [LENNARD_JONES] p_0/k_B:  66.92311 [K], p_1: 3.02658 [A], shift/k_B:  -0.06888830 [K], tailcorrection: no
     Oh -      C1 [LENNARD_JONES] p_0/k_B:  66.71302 [K], p_1: 3.24649 [A], shift/k_B:  -0.10459266 [K], tailcorrection: no
     Oh -      C2 [LENNARD_JONES] p_0/k_B:  66.71302 [K], p_1: 3.24649 [A], shift/k_B:  -0.10459266 [K], tailcorrection: no
     Oh -     H2A [LENNARD_JONES] p_0/k_B:  26.67115 [K], p_1: 2.93321 [A], shift/k_B:  -0.02274996 [K], tailcorrection: no
     Oh -     H2B [LENNARD_JONES] p_0/k_B:  26.67115 [K], p_1: 2.93321 [A], shift/k_B:  -0.02274996 [K], tailcorrection: no
     Oh -      N1 [LENNARD_JONES] p_0/k_B:  60.18534 [K], p_1: 3.14128 [A], shift/k_B:  -0.07743965 [K], tailcorrection: no
     Oh -     H1A [LENNARD_JONES] p_0/k_B:  26.67115 [K], p_1: 2.93321 [A], shift/k_B:  -0.02274996 [K], tailcorrection: no
     Oh -     H1B [LENNARD_JONES] p_0/k_B:  26.67115 [K], p_1: 2.93321 [A], shift/k_B:  -0.02274996 [K], tailcorrection: no
     Oh -     H1C [LENNARD_JONES] p_0/k_B:  26.67115 [K], p_1: 2.93321 [A], shift/k_B:  -0.02274996 [K], tailcorrection: no
     Oh -      N2 [LENNARD_JONES] p_0/k_B:  60.18534 [K], p_1: 3.14128 [A], shift/k_B:  -0.07743965 [K], tailcorrection: no
     Oh -     H2C [LENNARD_JONES] p_0/k_B:  26.67115 [K], p_1: 2.93321 [A], shift/k_B:  -0.02274996 [K], tailcorrection: no
     Oh -     H2D [LENNARD_JONES] p_0/k_B:  26.67115 [K], p_1: 2.93321 [A], shift/k_B:  -0.02274996 [K], tailcorrection: no
     Oh -     H2E [LENNARD_JONES] p_0/k_B:  26.67115 [K], p_1: 2.93321 [A], shift/k_B:  -0.02274996 [K], tailcorrection: no
     Oh -      C3 [LENNARD_JONES] p_0/k_B:  66.71302 [K], p_1: 3.24649 [A], shift/k_B:  -0.10459266 [K], tailcorrection: no
     Oh -      C4 [LENNARD_JONES] p_0/k_B:  66.71302 [K], p_1: 3.24649 [A], shift/k_B:  -0.10459266 [K], tailcorrection: no
     Oh -     H4A [LENNARD_JONES] p_0/k_B:  26.67115 [K], p_1: 2.93321 [A], shift/k_B:  -0.02274996 [K], tailcorrection: no
     Oh -     H4B [LENNARD_JONES] p_0/k_B:  26.67115 [K], p_1: 2.93321 [A], shift/k_B:  -0.02274996 [K], tailcorrection: no
     Oh -      N3 [LENNARD_JONES] p_0/k_B:  60.18534 [K], p_1: 3.14128 [A], shift/k_B:  -0.07743965 [K], tailcorrection: no
     Oh -     H3C [LENNARD_JONES] p_0/k_B:  26.67115 [K], p_1: 2.93321 [A], shift/k_B:  -0.02274996 [K], tailcorrection: no
     Oh -     H3D [LENNARD_JONES] p_0/k_B:  26.67115 [K], p_1: 2.93321 [A], shift/k_B:  -0.02274996 [K], tailcorrection: no
     Oh -     H3E [LENNARD_JONES] p_0/k_B:  26.67115 [K], p_1: 2.93321 [A], shift/k_B:  -0.02274996 [K], tailcorrection: no
     Oh -      N4 [LENNARD_JONES] p_0/k_B:  60.18534 [K], p_1: 3.14128 [A], shift/k_B:  -0.07743965 [K], tailcorrection: no
     Oh -     H4C [LENNARD_JONES] p_0/k_B:  26.67115 [K], p_1: 2.93321 [A], shift/k_B:  -0.02274996 [K], tailcorrection: no
     Oh -     H4D [LENNARD_JONES] p_0/k_B:  26.67115 [K], p_1: 2.93321 [A], shift/k_B:  -0.02274996 [K], tailcorrection: no
     Oh -     H4E [LENNARD_JONES] p_0/k_B:  26.67115 [K], p_1: 2.93321 [A], shift/k_B:  -0.02274996 [K], tailcorrection: no
     Ho -      Ho [ZERO_POTENTIAL]
     Ho -      Ow [ZERO_POTENTIAL]
     Ho -      Hw [ZERO_POTENTIAL]
     Ho -      He [ZERO_POTENTIAL]
     Ho -     Zr1 [ZERO_POTENTIAL]
     Ho -      O1 [ZERO_POTENTIAL]
     Ho -      O2 [ZERO_POTENTIAL]
     Ho -      O3 [ZERO_POTENTIAL]
     Ho -      O4 [ZERO_POTENTIAL]
     Ho -      O5 [ZERO_POTENTIAL]
     Ho -      O6 [ZERO_POTENTIAL]
     Ho -      C1 [ZERO_POTENTIAL]
     Ho -      C2 [ZERO_POTENTIAL]
     Ho -     H2A [ZERO_POTENTIAL]
     Ho -     H2B [ZERO_POTENTIAL]
     Ho -      N1 [ZERO_POTENTIAL]
     Ho -     H1A [ZERO_POTENTIAL]
     Ho -     H1B [ZERO_POTENTIAL]
     Ho -     H1C [ZERO_POTENTIAL]
     Ho -      N2 [ZERO_POTENTIAL]
     Ho -     H2C [ZERO_POTENTIAL]
     Ho -     H2D [ZERO_POTENTIAL]
     Ho -     H2E [ZERO_POTENTIAL]
     Ho -      C3 [ZERO_POTENTIAL]
     Ho -      C4 [ZERO_POTENTIAL]
     Ho -     H4A [ZERO_POTENTIAL]
     Ho -     H4B [ZERO_POTENTIAL]
     Ho -      N3 [ZERO_POTENTIAL]
     Ho -     H3C [ZERO_POTENTIAL]
     Ho -     H3D [ZERO_POTENTIAL]
     Ho -     H3E [ZERO_POTENTIAL]
     Ho -      N4 [ZERO_POTENTIAL]
     Ho -     H4C [ZERO_POTENTIAL]
     Ho -     H4D [ZERO_POTENTIAL]
     Ho -     H4E [ZERO_POTENTIAL]
     Ow -      Ow [LENNARD_JONES] p_0/k_B:  48.15810 [K], p_1: 3.03315 [A], shift/k_B:  -0.05022176 [K], tailcorrection: no
     Ow -      Hw [ZERO_POTENTIAL]
     Ow -      He [LENNARD_JONES] p_0/k_B:  22.91120 [K], p_1: 2.83657 [A], shift/k_B:  -0.01598491 [K], tailcorrection: no
     Ow -     Zr1 [LENNARD_JONES] p_0/k_B:  40.89194 [K], p_1: 2.90816 [A], shift/k_B:  -0.03313080 [K], tailcorrection: no
     Ow -      O1 [LENNARD_JONES] p_0/k_B:  48.15810 [K], p_1: 3.03315 [A], shift/k_B:  -0.05022176 [K], tailcorrection: no
     Ow -      O2 [LENNARD_JONES] p_0/k_B:  48.15810 [K], p_1: 3.03315 [A], shift/k_B:  -0.05022176 [K], tailcorrection: no
     Ow -      O3 [LENNARD_JONES] p_0/k_B:  48.15810 [K], p_1: 3.03315 [A], shift/k_B:  -0.05022176 [K], tailcorrection: no
     Ow -      O4 [LENNARD_JONES] p_0/k_B:  48.15810 [K], p_1: 3.03315 [A], shift/k_B:  -0.05022176 [K], tailcorrection: no
     Ow -      O5 [LENNARD_JONES] p_0/k_B:  48.15810 [K], p_1: 3.03315 [A], shift/k_B:  -0.05022176 [K], tailcorrection: no
     Ow -      O6 [LENNARD_JONES] p_0/k_B:  48.15810 [K], p_1: 3.03315 [A], shift/k_B:  -0.05022176 [K], tailcorrection: no
     Ow -      C1 [LENNARD_JONES] p_0/k_B:  48.00691 [K], p_1: 3.25307 [A], shift/k_B:  -0.07618410 [K], tailcorrection: no
     Ow -      C2 [LENNARD_JONES] p_0/k_B:  48.00691 [K], p_1: 3.25307 [A], shift/k_B:  -0.07618410 [K], tailcorrection: no
     Ow -     H2A [LENNARD_JONES] p_0/k_B:  19.19265 [K], p_1: 2.93979 [A], shift/k_B:  -0.01659232 [K], tailcorrection: no
     Ow -     H2B [LENNARD_JONES] p_0/k_B:  19.19265 [K], p_1: 2.93979 [A], shift/k_B:  -0.01659232 [K], tailcorrection: no
     Ow -      N1 [LENNARD_JONES] p_0/k_B:  43.30958 [K], p_1: 3.14785 [A], shift/k_B:  -0.05642912 [K], tailcorrection: no
     Ow -     H1A [LENNARD_JONES] p_0/k_B:  19.19265 [K], p_1: 2.93979 [A], shift/k_B:  -0.01659232 [K], tailcorrection: no
     Ow -     H1B [LENNARD_JONES] p_0/k_B:  19.19265 [K], p_1: 2.93979 [A], shift/k_B:  -0.01659232 [K], tailcorrection: no
     Ow -     H1C [LENNARD_JONES] p_0/k_B:  19.19265 [K], p_1: 2.93979 [A], shift/k_B:  -0.01659232 [K], tailcorrection: no
     Ow -      N2 [LENNARD_JONES] p_0/k_B:  43.30958 [K], p_1: 3.14785 [A], shift/k_B:  -0.05642912 [K], tailcorrection: no
     Ow -     H2C [LENNARD_JONES] p_0/k_B:  19.19265 [K], p_1: 2.93979 [A], shift/k_B:  -0.01659232 [K], tailcorrection: no
     Ow -     H2D [LENNARD_JONES] p_0/k_B:  19.19265 [K], p_1: 2.93979 [A], shift/k_B:  -0.01659232 [K], tailcorrection: no
     Ow -     H2E [LENNARD_JONES] p_0/k_B:  19.19265 [K], p_1: 2.93979 [A], shift/k_B:  -0.01659232 [K], tailcorrection: no
     Ow -      C3 [LENNARD_JONES] p_0/k_B:  48.00691 [K], p_1: 3.25307 [A], shift/k_B:  -0.07618410 [K], tailcorrection: no
     Ow -      C4 [LENNARD_JONES] p_0/k_B:  48.00691 [K], p_1: 3.25307 [A], shift/k_B:  -0.07618410 [K], tailcorrection: no
     Ow -     H4A [LENNARD_JONES] p_0/k_B:  19.19265 [K], p_1: 2.93979 [A], shift/k_B:  -0.01659232 [K], tailcorrection: no
     Ow -     H4B [LENNARD_JONES] p_0/k_B:  19.19265 [K], p_1: 2.93979 [A], shift/k_B:  -0.01659232 [K], tailcorrection: no
     Ow -      N3 [LENNARD_JONES] p_0/k_B:  43.30958 [K], p_1: 3.14785 [A], shift/k_B:  -0.05642912 [K], tailcorrection: no
     Ow -     H3C [LENNARD_JONES] p_0/k_B:  19.19265 [K], p_1: 2.93979 [A], shift/k_B:  -0.01659232 [K], tailcorrection: no
     Ow -     H3D [LENNARD_JONES] p_0/k_B:  19.19265 [K], p_1: 2.93979 [A], shift/k_B:  -0.01659232 [K], tailcorrection: no
     Ow -     H3E [LENNARD_JONES] p_0/k_B:  19.19265 [K], p_1: 2.93979 [A], shift/k_B:  -0.01659232 [K], tailcorrection: no
     Ow -      N4 [LENNARD_JONES] p_0/k_B:  43.30958 [K], p_1: 3.14785 [A], shift/k_B:  -0.05642912 [K], tailcorrection: no
     Ow -     H4C [LENNARD_JONES] p_0/k_B:  19.19265 [K], p_1: 2.93979 [A], shift/k_B:  -0.01659232 [K], tailcorrection: no
     Ow -     H4D [LENNARD_JONES] p_0/k_B:  19.19265 [K], p_1: 2.93979 [A], shift/k_B:  -0.01659232 [K], tailcorrection: no
     Ow -     H4E [LENNARD_JONES] p_0/k_B:  19.19265 [K], p_1: 2.93979 [A], shift/k_B:  -0.01659232 [K], tailcorrection: no
     Hw -      Hw [ZERO_POTENTIAL]
     Hw -      He [ZERO_POTENTIAL]
     Hw -     Zr1 [ZERO_POTENTIAL]
     Hw -      O1 [ZERO_POTENTIAL]
     Hw -      O2 [ZERO_POTENTIAL]
     Hw -      O3 [ZERO_POTENTIAL]
     Hw -      O4 [ZERO_POTENTIAL]
     Hw -      O5 [ZERO_POTENTIAL]
     Hw -      O6 [ZERO_POTENTIAL]
     Hw -      C1 [ZERO_POTENTIAL]
     Hw -      C2 [ZERO_POTENTIAL]
     Hw -     H2A [ZERO_POTENTIAL]
     Hw -     H2B [ZERO_POTENTIAL]
     Hw -      N1 [ZERO_POTENTIAL]
     Hw -     H1A [ZERO_POTENTIAL]
     Hw -     H1B [ZERO_POTENTIAL]
     Hw -     H1C [ZERO_POTENTIAL]
     Hw -      N2 [ZERO_POTENTIAL]
     Hw -     H2C [ZERO_POTENTIAL]
     Hw -     H2D [ZERO_POTENTIAL]
     Hw -     H2E [ZERO_POTENTIAL]
     Hw -      C3 [ZERO_POTENTIAL]
     Hw -      C4 [ZERO_POTENTIAL]
     Hw -     H4A [ZERO_POTENTIAL]
     Hw -     H4B [ZERO_POTENTIAL]
     Hw -      N3 [ZERO_POTENTIAL]
     Hw -     H3C [ZERO_POTENTIAL]
     Hw -     H3D [ZERO_POTENTIAL]
     Hw -     H3E [ZERO_POTENTIAL]
     Hw -      N4 [ZERO_POTENTIAL]
     Hw -     H4C [ZERO_POTENTIAL]
     Hw -     H4D [ZERO_POTENTIAL]
     Hw -     H4E [ZERO_POTENTIAL]
     He -      He [LENNARD_JONES] p_0/k_B:  10.90000 [K], p_1: 2.64000 [A], shift/k_B:  -0.00494280 [K], tailcorrection: no
     He -     Zr1 [LENNARD_JONES] p_0/k_B:  19.45433 [K], p_1: 2.71159 [A], shift/k_B:  -0.01035787 [K], tailcorrection: no
     He -      O1 [LENNARD_JONES] p_0/k_B:  22.91120 [K], p_1: 2.83657 [A], shift/k_B:  -0.01598491 [K], tailcorrection: no
     He -      O2 [LENNARD_JONES] p_0/k_B:  22.91120 [K], p_1: 2.83657 [A], shift/k_B:  -0.01598491 [K], tailcorrection: no
     He -      O3 [LENNARD_JONES] p_0/k_B:  22.91120 [K], p_1: 2.83657 [A], shift/k_B:  -0.01598491 [K], tailcorrection: no
     He -      O4 [LENNARD_JONES] p_0/k_B:  22.91120 [K], p_1: 2.83657 [A], shift/k_B:  -0.01598491 [K], tailcorrection: no
     He -      O5 [LENNARD_JONES] p_0/k_B:  22.91120 [K], p_1: 2.83657 [A], shift/k_B:  -0.01598491 [K], tailcorrection: no
     He -      O6 [LENNARD_JONES] p_0/k_B:  22.91120 [K], p_1: 2.83657 [A], shift/k_B:  -0.01598491 [K], tailcorrection: no
     He -      C1 [LENNARD_JONES] p_0/k_B:  22.83928 [K], p_1: 3.05649 [A], shift/k_B:  -0.02493896 [K], tailcorrection: no
     He -      C2 [LENNARD_JONES] p_0/k_B:  22.83928 [K], p_1: 3.05649 [A], shift/k_B:  -0.02493896 [K], tailcorrection: no
     He -     H2A [LENNARD_JONES] p_0/k_B:   9.13090 [K], p_1: 2.74321 [A], shift/k_B:  -0.00521169 [K], tailcorrection: no
     He -     H2B [LENNARD_JONES] p_0/k_B:   9.13090 [K], p_1: 2.74321 [A], shift/k_B:  -0.00521169 [K], tailcorrection: no
     He -      N1 [LENNARD_JONES] p_0/k_B:  20.60452 [K], p_1: 2.95128 [A], shift/k_B:  -0.01823482 [K], tailcorrection: no
     He -     H1A [LENNARD_JONES] p_0/k_B:   9.13090 [K], p_1: 2.74321 [A], shift/k_B:  -0.00521169 [K], tailcorrection: no
     He -     H1B [LENNARD_JONES] p_0/k_B:   9.13090 [K], p_1: 2.74321 [A], shift/k_B:  -0.00521169 [K], tailcorrection: no
     He -     H1C [LENNARD_JONES] p_0/k_B:   9.13090 [K], p_1: 2.74321 [A], shift/k_B:  -0.00521169 [K], tailcorrection: no
     He -      N2 [LENNARD_JONES] p_0/k_B:  20.60452 [K], p_1: 2.95128 [A], shift/k_B:  -0.01823482 [K], tailcorrection: no
     He -     H2C [LENNARD_JONES] p_0/k_B:   9.13090 [K], p_1: 2.74321 [A], shift/k_B:  -0.00521169 [K], tailcorrection: no
     He -     H2D [LENNARD_JONES] p_0/k_B:   9.13090 [K], p_1: 2.74321 [A], shift/k_B:  -0.00521169 [K], tailcorrection: no
     He -     H2E [LENNARD_JONES] p_0/k_B:   9.13090 [K], p_1: 2.74321 [A], shift/k_B:  -0.00521169 [K], tailcorrection: no
     He -      C3 [LENNARD_JONES] p_0/k_B:  22.83928 [K], p_1: 3.05649 [A], shift/k_B:  -0.02493896 [K], tailcorrection: no
     He -      C4 [LENNARD_JONES] p_0/k_B:  22.83928 [K], p_1: 3.05649 [A], shift/k_B:  -0.02493896 [K], tailcorrection: no
     He -     H4A [LENNARD_JONES] p_0/k_B:   9.13090 [K], p_1: 2.74321 [A], shift/k_B:  -0.00521169 [K], tailcorrection: no
     He -     H4B [LENNARD_JONES] p_0/k_B:   9.13090 [K], p_1: 2.74321 [A], shift/k_B:  -0.00521169 [K], tailcorrection: no
     He -      N3 [LENNARD_JONES] p_0/k_B:  20.60452 [K], p_1: 2.95128 [A], shift/k_B:  -0.01823482 [K], tailcorrection: no
     He -     H3C [LENNARD_JONES] p_0/k_B:   9.13090 [K], p_1: 2.74321 [A], shift/k_B:  -0.00521169 [K], tailcorrection: no
     He -     H3D [LENNARD_JONES] p_0/k_B:   9.13090 [K], p_1: 2.74321 [A], shift/k_B:  -0.00521169 [K], tailcorrection: no
     He -     H3E [LENNARD_JONES] p_0/k_B:   9.13090 [K], p_1: 2.74321 [A], shift/k_B:  -0.00521169 [K], tailcorrection: no
     He -      N4 [LENNARD_JONES] p_0/k_B:  20.60452 [K], p_1: 2.95128 [A], shift/k_B:  -0.01823482 [K], tailcorrection: no
     He -     H4C [LENNARD_JONES] p_0/k_B:   9.13090 [K], p_1: 2.74321 [A], shift/k_B:  -0.00521169 [K], tailcorrection: no
     He -     H4D [LENNARD_JONES] p_0/k_B:   9.13090 [K], p_1: 2.74321 [A], shift/k_B:  -0.00521169 [K], tailcorrection: no
     He -     H4E [LENNARD_JONES] p_0/k_B:   9.13090 [K], p_1: 2.74321 [A], shift/k_B:  -0.00521169 [K], tailcorrection: no
    Zr1 -     Zr1 [LENNARD_JONES] p_0/k_B:  34.72210 [K], p_1: 2.78317 [A], shift/k_B:  -0.02161470 [K], tailcorrection: no
    Zr1 -      O1 [LENNARD_JONES] p_0/k_B:  40.89194 [K], p_1: 2.90816 [A], shift/k_B:  -0.03313080 [K], tailcorrection: no
    Zr1 -      O2 [LENNARD_JONES] p_0/k_B:  40.89194 [K], p_1: 2.90816 [A], shift/k_B:  -0.03313080 [K], tailcorrection: no
    Zr1 -      O3 [LENNARD_JONES] p_0/k_B:  40.89194 [K], p_1: 2.90816 [A], shift/k_B:  -0.03313080 [K], tailcorrection: no
    Zr1 -      O4 [LENNARD_JONES] p_0/k_B:  40.89194 [K], p_1: 2.90816 [A], shift/k_B:  -0.03313080 [K], tailcorrection: no
    Zr1 -      O5 [LENNARD_JONES] p_0/k_B:  40.89194 [K], p_1: 2.90816 [A], shift/k_B:  -0.03313080 [K], tailcorrection: no
    Zr1 -      O6 [LENNARD_JONES] p_0/k_B:  40.89194 [K], p_1: 2.90816 [A], shift/k_B:  -0.03313080 [K], tailcorrection: no
    Zr1 -      C1 [LENNARD_JONES] p_0/k_B:  40.76356 [K], p_1: 3.12808 [A], shift/k_B:  -0.05114173 [K], tailcorrection: no
    Zr1 -      C2 [LENNARD_JONES] p_0/k_B:  40.76356 [K], p_1: 3.12808 [A], shift/k_B:  -0.05114173 [K], tailcorrection: no
    Zr1 -     H2A [LENNARD_JONES] p_0/k_B:  16.29684 [K], p_1: 2.81480 [A], shift/k_B:  -0.01085636 [K], tailcorrection: no
    Zr1 -     H2B [LENNARD_JONES] p_0/k_B:  16.29684 [K], p_1: 2.81480 [A], shift/k_B:  -0.01085636 [K], tailcorrection: no
    Zr1 -      N1 [LENNARD_JONES] p_0/k_B:  36.77496 [K], p_1: 3.02287 [A], shift/k_B:  -0.03757736 [K], tailcorrection: no
    Zr1 -     H1A [LENNARD_JONES] p_0/k_B:  16.29684 [K], p_1: 2.81480 [A], shift/k_B:  -0.01085636 [K], tailcorrection: no
    Zr1 -     H1B [LENNARD_JONES] p_0/k_B:  16.29684 [K], p_1: 2.81480 [A], shift/k_B:  -0.01085636 [K], tailcorrection: no
    Zr1 -     H1C [LENNARD_JONES] p_0/k_B:  16.29684 [K], p_1: 2.81480 [A], shift/k_B:  -0.01085636 [K], tailcorrection: no
    Zr1 -      N2 [LENNARD_JONES] p_0/k_B:  36.77496 [K], p_1: 3.02287 [A], shift/k_B:  -0.03757736 [K], tailcorrection: no
    Zr1 -     H2C [LENNARD_JONES] p_0/k_B:  16.29684 [K], p_1: 2.81480 [A], shift/k_B:  -0.01085636 [K], tailcorrection: no
    Zr1 -     H2D [LENNARD_JONES] p_0/k_B:  16.29684 [K], p_1: 2.81480 [A], shift/k_B:  -0.01085636 [K], tailcorrection: no
    Zr1 -     H2E [LENNARD_JONES] p_0/k_B:  16.29684 [K], p_1: 2.81480 [A], shift/k_B:  -0.01085636 [K], tailcorrection: no
    Zr1 -      C3 [LENNARD_JONES] p_0/k_B:  40.76356 [K], p_1: 3.12808 [A], shift/k_B:  -0.05114173 [K], tailcorrection: no
    Zr1 -      C4 [LENNARD_JONES] p_0/k_B:  40.76356 [K], p_1: 3.12808 [A], shift/k_B:  -0.05114173 [K], tailcorrection: no
    Zr1 -     H4A [LENNARD_JONES] p_0/k_B:  16.29684 [K], p_1: 2.81480 [A], shift/k_B:  -0.01085636 [K], tailcorrection: no
    Zr1 -     H4B [LENNARD_JONES] p_0/k_B:  16.29684 [K], p_1: 2.81480 [A], shift/k_B:  -0.01085636 [K], tailcorrection: no
    Zr1 -      N3 [LENNARD_JONES] p_0/k_B:  36.77496 [K], p_1: 3.02287 [A], shift/k_B:  -0.03757736 [K], tailcorrection: no
    Zr1 -     H3C [LENNARD_JONES] p_0/k_B:  16.29684 [K], p_1: 2.81480 [A], shift/k_B:  -0.01085636 [K], tailcorrection: no
    Zr1 -     H3D [LENNARD_JONES] p_0/k_B:  16.29684 [K], p_1: 2.81480 [A], shift/k_B:  -0.01085636 [K], tailcorrection: no
    Zr1 -     H3E [LENNARD_JONES] p_0/k_B:  16.29684 [K], p_1: 2.81480 [A], shift/k_B:  -0.01085636 [K], tailcorrection: no
    Zr1 -      N4 [LENNARD_JONES] p_0/k_B:  36.77496 [K], p_1: 3.02287 [A], shift/k_B:  -0.03757736 [K], tailcorrection: no
    Zr1 -     H4C [LENNARD_JONES] p_0/k_B:  16.29684 [K], p_1: 2.81480 [A], shift/k_B:  -0.01085636 [K], tailcorrection: no
    Zr1 -     H4D [LENNARD_JONES] p_0/k_B:  16.29684 [K], p_1: 2.81480 [A], shift/k_B:  -0.01085636 [K], tailcorrection: no
    Zr1 -     H4E [LENNARD_JONES] p_0/k_B:  16.29684 [K], p_1: 2.81480 [A], shift/k_B:  -0.01085636 [K], tailcorrection: no
     O1 -      O1 [LENNARD_JONES] p_0/k_B:  48.15810 [K], p_1: 3.03315 [A], shift/k_B:  -0.05022176 [K], tailcorrection: no
     O1 -      O2 [LENNARD_JONES] p_0/k_B:  48.15810 [K], p_1: 3.03315 [A], shift/k_B:  -0.05022176 [K], tailcorrection: no
     O1 -      O3 [LENNARD_JONES] p_0/k_B:  48.15810 [K], p_1: 3.03315 [A], shift/k_B:  -0.05022176 [K], tailcorrection: no
     O1 -      O4 [LENNARD_JONES] p_0/k_B:  48.15810 [K], p_1: 3.03315 [A], shift/k_B:  -0.05022176 [K], tailcorrection: no
     O1 -      O5 [LENNARD_JONES] p_0/k_B:  48.15810 [K], p_1: 3.03315 [A], shift/k_B:  -0.05022176 [K], tailcorrection: no
     O1 -      O6 [LENNARD_JONES] p_0/k_B:  48.15810 [K], p_1: 3.03315 [A], shift/k_B:  -0.05022176 [K], tailcorrection: no
     O1 -      C1 [LENNARD_JONES] p_0/k_B:  48.00691 [K], p_1: 3.25307 [A], shift/k_B:  -0.07618410 [K], tailcorrection: no
     O1 -      C2 [LENNARD_JONES] p_0/k_B:  48.00691 [K], p_1: 3.25307 [A], shift/k_B:  -0.07618410 [K], tailcorrection: no
     O1 -     H2A [LENNARD_JONES] p_0/k_B:  19.19265 [K], p_1: 2.93979 [A], shift/k_B:  -0.01659232 [K], tailcorrection: no
     O1 -     H2B [LENNARD_JONES] p_0/k_B:  19.19265 [K], p_1: 2.93979 [A], shift/k_B:  -0.01659232 [K], tailcorrection: no
     O1 -      N1 [LENNARD_JONES] p_0/k_B:  43.30958 [K], p_1: 3.14785 [A], shift/k_B:  -0.05642912 [K], tailcorrection: no
     O1 -     H1A [LENNARD_JONES] p_0/k_B:  19.19265 [K], p_1: 2.93979 [A], shift/k_B:  -0.01659232 [K], tailcorrection: no
     O1 -     H1B [LENNARD_JONES] p_0/k_B:  19.19265 [K], p_1: 2.93979 [A], shift/k_B:  -0.01659232 [K], tailcorrection: no
     O1 -     H1C [LENNARD_JONES] p_0/k_B:  19.19265 [K], p_1: 2.93979 [A], shift/k_B:  -0.01659232 [K], tailcorrection: no
     O1 -      N2 [LENNARD_JONES] p_0/k_B:  43.30958 [K], p_1: 3.14785 [A], shift/k_B:  -0.05642912 [K], tailcorrection: no
     O1 -     H2C [LENNARD_JONES] p_0/k_B:  19.19265 [K], p_1: 2.93979 [A], shift/k_B:  -0.01659232 [K], tailcorrection: no
     O1 -     H2D [LENNARD_JONES] p_0/k_B:  19.19265 [K], p_1: 2.93979 [A], shift/k_B:  -0.01659232 [K], tailcorrection: no
     O1 -     H2E [LENNARD_JONES] p_0/k_B:  19.19265 [K], p_1: 2.93979 [A], shift/k_B:  -0.01659232 [K], tailcorrection: no
     O1 -      C3 [LENNARD_JONES] p_0/k_B:  48.00691 [K], p_1: 3.25307 [A], shift/k_B:  -0.07618410 [K], tailcorrection: no
     O1 -      C4 [LENNARD_JONES] p_0/k_B:  48.00691 [K], p_1: 3.25307 [A], shift/k_B:  -0.07618410 [K], tailcorrection: no
     O1 -     H4A [LENNARD_JONES] p_0/k_B:  19.19265 [K], p_1: 2.93979 [A], shift/k_B:  -0.01659232 [K], tailcorrection: no
     O1 -     H4B [LENNARD_JONES] p_0/k_B:  19.19265 [K], p_1: 2.93979 [A], shift/k_B:  -0.01659232 [K], tailcorrection: no
     O1 -      N3 [LENNARD_JONES] p_0/k_B:  43.30958 [K], p_1: 3.14785 [A], shift/k_B:  -0.05642912 [K], tailcorrection: no
     O1 -     H3C [LENNARD_JONES] p_0/k_B:  19.19265 [K], p_1: 2.93979 [A], shift/k_B:  -0.01659232 [K], tailcorrection: no
     O1 -     H3D [LENNARD_JONES] p_0/k_B:  19.19265 [K], p_1: 2.93979 [A], shift/k_B:  -0.01659232 [K], tailcorrection: no
     O1 -     H3E [LENNARD_JONES] p_0/k_B:  19.19265 [K], p_1: 2.93979 [A], shift/k_B:  -0.01659232 [K], tailcorrection: no
     O1 -      N4 [LENNARD_JONES] p_0/k_B:  43.30958 [K], p_1: 3.14785 [A], shift/k_B:  -0.05642912 [K], tailcorrection: no
     O1 -     H4C [LENNARD_JONES] p_0/k_B:  19.19265 [K], p_1: 2.93979 [A], shift/k_B:  -0.01659232 [K], tailcorrection: no
     O1 -     H4D [LENNARD_JONES] p_0/k_B:  19.19265 [K], p_1: 2.93979 [A], shift/k_B:  -0.01659232 [K], tailcorrection: no
     O1 -     H4E [LENNARD_JONES] p_0/k_B:  19.19265 [K], p_1: 2.93979 [A], shift/k_B:  -0.01659232 [K], tailcorrection: no
     O2 -      O2 [LENNARD_JONES] p_0/k_B:  48.15810 [K], p_1: 3.03315 [A], shift/k_B:  -0.05022176 [K], tailcorrection: no
     O2 -      O3 [LENNARD_JONES] p_0/k_B:  48.15810 [K], p_1: 3.03315 [A], shift/k_B:  -0.05022176 [K], tailcorrection: no
     O2 -      O4 [LENNARD_JONES] p_0/k_B:  48.15810 [K], p_1: 3.03315 [A], shift/k_B:  -0.05022176 [K], tailcorrection: no
     O2 -      O5 [LENNARD_JONES] p_0/k_B:  48.15810 [K], p_1: 3.03315 [A], shift/k_B:  -0.05022176 [K], tailcorrection: no
     O2 -      O6 [LENNARD_JONES] p_0/k_B:  48.15810 [K], p_1: 3.03315 [A], shift/k_B:  -0.05022176 [K], tailcorrection: no
     O2 -      C1 [LENNARD_JONES] p_0/k_B:  48.00691 [K], p_1: 3.25307 [A], shift/k_B:  -0.07618410 [K], tailcorrection: no
     O2 -      C2 [LENNARD_JONES] p_0/k_B:  48.00691 [K], p_1: 3.25307 [A], shift/k_B:  -0.07618410 [K], tailcorrection: no
     O2 -     H2A [LENNARD_JONES] p_0/k_B:  19.19265 [K], p_1: 2.93979 [A], shift/k_B:  -0.01659232 [K], tailcorrection: no
     O2 -     H2B [LENNARD_JONES] p_0/k_B:  19.19265 [K], p_1: 2.93979 [A], shift/k_B:  -0.01659232 [K], tailcorrection: no
     O2 -      N1 [LENNARD_JONES] p_0/k_B:  43.30958 [K], p_1: 3.14785 [A], shift/k_B:  -0.05642912 [K], tailcorrection: no
     O2 -     H1A [LENNARD_JONES] p_0/k_B:  19.19265 [K], p_1: 2.93979 [A], shift/k_B:  -0.01659232 [K], tailcorrection: no
     O2 -     H1B [LENNARD_JONES] p_0/k_B:  19.19265 [K], p_1: 2.93979 [A], shift/k_B:  -0.01659232 [K], tailcorrection: no
     O2 -     H1C [LENNARD_JONES] p_0/k_B:  19.19265 [K], p_1: 2.93979 [A], shift/k_B:  -0.01659232 [K], tailcorrection: no
     O2 -      N2 [LENNARD_JONES] p_0/k_B:  43.30958 [K], p_1: 3.14785 [A], shift/k_B:  -0.05642912 [K], tailcorrection: no
     O2 -     H2C [LENNARD_JONES] p_0/k_B:  19.19265 [K], p_1: 2.93979 [A], shift/k_B:  -0.01659232 [K], tailcorrection: no
     O2 -     H2D [LENNARD_JONES] p_0/k_B:  19.19265 [K], p_1: 2.93979 [A], shift/k_B:  -0.01659232 [K], tailcorrection: no
     O2 -     H2E [LENNARD_JONES] p_0/k_B:  19.19265 [K], p_1: 2.93979 [A], shift/k_B:  -0.01659232 [K], tailcorrection: no
     O2 -      C3 [LENNARD_JONES] p_0/k_B:  48.00691 [K], p_1: 3.25307 [A], shift/k_B:  -0.07618410 [K], tailcorrection: no
     O2 -      C4 [LENNARD_JONES] p_0/k_B:  48.00691 [K], p_1: 3.25307 [A], shift/k_B:  -0.07618410 [K], tailcorrection: no
     O2 -     H4A [LENNARD_JONES] p_0/k_B:  19.19265 [K], p_1: 2.93979 [A], shift/k_B:  -0.01659232 [K], tailcorrection: no
     O2 -     H4B [LENNARD_JONES] p_0/k_B:  19.19265 [K], p_1: 2.93979 [A], shift/k_B:  -0.01659232 [K], tailcorrection: no
     O2 -      N3 [LENNARD_JONES] p_0/k_B:  43.30958 [K], p_1: 3.14785 [A], shift/k_B:  -0.05642912 [K], tailcorrection: no
     O2 -     H3C [LENNARD_JONES] p_0/k_B:  19.19265 [K], p_1: 2.93979 [A], shift/k_B:  -0.01659232 [K], tailcorrection: no
     O2 -     H3D [LENNARD_JONES] p_0/k_B:  19.19265 [K], p_1: 2.93979 [A], shift/k_B:  -0.01659232 [K], tailcorrection: no
     O2 -     H3E [LENNARD_JONES] p_0/k_B:  19.19265 [K], p_1: 2.93979 [A], shift/k_B:  -0.01659232 [K], tailcorrection: no
     O2 -      N4 [LENNARD_JONES] p_0/k_B:  43.30958 [K], p_1: 3.14785 [A], shift/k_B:  -0.05642912 [K], tailcorrection: no
     O2 -     H4C [LENNARD_JONES] p_0/k_B:  19.19265 [K], p_1: 2.93979 [A], shift/k_B:  -0.01659232 [K], tailcorrection: no
     O2 -     H4D [LENNARD_JONES] p_0/k_B:  19.19265 [K], p_1: 2.93979 [A], shift/k_B:  -0.01659232 [K], tailcorrection: no
     O2 -     H4E [LENNARD_JONES] p_0/k_B:  19.19265 [K], p_1: 2.93979 [A], shift/k_B:  -0.01659232 [K], tailcorrection: no
     O3 -      O3 [LENNARD_JONES] p_0/k_B:  48.15810 [K], p_1: 3.03315 [A], shift/k_B:  -0.05022176 [K], tailcorrection: no
     O3 -      O4 [LENNARD_JONES] p_0/k_B:  48.15810 [K], p_1: 3.03315 [A], shift/k_B:  -0.05022176 [K], tailcorrection: no
     O3 -      O5 [LENNARD_JONES] p_0/k_B:  48.15810 [K], p_1: 3.03315 [A], shift/k_B:  -0.05022176 [K], tailcorrection: no
     O3 -      O6 [LENNARD_JONES] p_0/k_B:  48.15810 [K], p_1: 3.03315 [A], shift/k_B:  -0.05022176 [K], tailcorrection: no
     O3 -      C1 [LENNARD_JONES] p_0/k_B:  48.00691 [K], p_1: 3.25307 [A], shift/k_B:  -0.07618410 [K], tailcorrection: no
     O3 -      C2 [LENNARD_JONES] p_0/k_B:  48.00691 [K], p_1: 3.25307 [A], shift/k_B:  -0.07618410 [K], tailcorrection: no
     O3 -     H2A [LENNARD_JONES] p_0/k_B:  19.19265 [K], p_1: 2.93979 [A], shift/k_B:  -0.01659232 [K], tailcorrection: no
     O3 -     H2B [LENNARD_JONES] p_0/k_B:  19.19265 [K], p_1: 2.93979 [A], shift/k_B:  -0.01659232 [K], tailcorrection: no
     O3 -      N1 [LENNARD_JONES] p_0/k_B:  43.30958 [K], p_1: 3.14785 [A], shift/k_B:  -0.05642912 [K], tailcorrection: no
     O3 -     H1A [LENNARD_JONES] p_0/k_B:  19.19265 [K], p_1: 2.93979 [A], shift/k_B:  -0.01659232 [K], tailcorrection: no
     O3 -     H1B [LENNARD_JONES] p_0/k_B:  19.19265 [K], p_1: 2.93979 [A], shift/k_B:  -0.01659232 [K], tailcorrection: no
     O3 -     H1C [LENNARD_JONES] p_0/k_B:  19.19265 [K], p_1: 2.93979 [A], shift/k_B:  -0.01659232 [K], tailcorrection: no
     O3 -      N2 [LENNARD_JONES] p_0/k_B:  43.30958 [K], p_1: 3.14785 [A], shift/k_B:  -0.05642912 [K], tailcorrection: no
     O3 -     H2C [LENNARD_JONES] p_0/k_B:  19.19265 [K], p_1: 2.93979 [A], shift/k_B:  -0.01659232 [K], tailcorrection: no
     O3 -     H2D [LENNARD_JONES] p_0/k_B:  19.19265 [K], p_1: 2.93979 [A], shift/k_B:  -0.01659232 [K], tailcorrection: no
     O3 -     H2E [LENNARD_JONES] p_0/k_B:  19.19265 [K], p_1: 2.93979 [A], shift/k_B:  -0.01659232 [K], tailcorrection: no
     O3 -      C3 [LENNARD_JONES] p_0/k_B:  48.00691 [K], p_1: 3.25307 [A], shift/k_B:  -0.07618410 [K], tailcorrection: no
     O3 -      C4 [LENNARD_JONES] p_0/k_B:  48.00691 [K], p_1: 3.25307 [A], shift/k_B:  -0.07618410 [K], tailcorrection: no
     O3 -     H4A [LENNARD_JONES] p_0/k_B:  19.19265 [K], p_1: 2.93979 [A], shift/k_B:  -0.01659232 [K], tailcorrection: no
     O3 -     H4B [LENNARD_JONES] p_0/k_B:  19.19265 [K], p_1: 2.93979 [A], shift/k_B:  -0.01659232 [K], tailcorrection: no
     O3 -      N3 [LENNARD_JONES] p_0/k_B:  43.30958 [K], p_1: 3.14785 [A], shift/k_B:  -0.05642912 [K], tailcorrection: no
     O3 -     H3C [LENNARD_JONES] p_0/k_B:  19.19265 [K], p_1: 2.93979 [A], shift/k_B:  -0.01659232 [K], tailcorrection: no
     O3 -     H3D [LENNARD_JONES] p_0/k_B:  19.19265 [K], p_1: 2.93979 [A], shift/k_B:  -0.01659232 [K], tailcorrection: no
     O3 -     H3E [LENNARD_JONES] p_0/k_B:  19.19265 [K], p_1: 2.93979 [A], shift/k_B:  -0.01659232 [K], tailcorrection: no
     O3 -      N4 [LENNARD_JONES] p_0/k_B:  43.30958 [K], p_1: 3.14785 [A], shift/k_B:  -0.05642912 [K], tailcorrection: no
     O3 -     H4C [LENNARD_JONES] p_0/k_B:  19.19265 [K], p_1: 2.93979 [A], shift/k_B:  -0.01659232 [K], tailcorrection: no
     O3 -     H4D [LENNARD_JONES] p_0/k_B:  19.19265 [K], p_1: 2.93979 [A], shift/k_B:  -0.01659232 [K], tailcorrection: no
[...]
	Block[ 0]            0.00000 [K]
	Block[ 1]            0.00000 [K]
	Block[ 2]            0.00000 [K]
	Block[ 3]            0.00000 [K]
	Block[ 4]            0.00000 [K]
	------------------------------------------------------------------------------
	Average              0.00000 [K] +/-            0.00000 [K]

Average Cation Bond-Bond cross term energy:
=================================================
	Block[ 0]            0.00000 [K]
	Block[ 1]            0.00000 [K]
	Block[ 2]            0.00000 [K]
	Block[ 3]            0.00000 [K]
	Block[ 4]            0.00000 [K]
	------------------------------------------------------------------------------
	Average              0.00000 [K] +/-            0.00000 [K]

Average Cation Bend-Bend cross term energy:
===========================================
	Block[ 0]            0.00000 [K]
	Block[ 1]            0.00000 [K]
	Block[ 2]            0.00000 [K]
	Block[ 3]            0.00000 [K]
	Block[ 4]            0.00000 [K]
	------------------------------------------------------------------------------
	Average              0.00000 [K] +/-            0.00000 [K]

Average Cation Bond-Bend cross term energy:
==============================================
	Block[ 0]            0.00000 [K]
	Block[ 1]            0.00000 [K]
	Block[ 2]            0.00000 [K]
	Block[ 3]            0.00000 [K]
	Block[ 4]            0.00000 [K]
	------------------------------------------------------------------------------
	Average              0.00000 [K] +/-            0.00000 [K]

Average Cation Bond-Torsion cross term energy:
==============================================
	Block[ 0]            0.00000 [K]
	Block[ 1]            0.00000 [K]
	Block[ 2]            0.00000 [K]
	Block[ 3]            0.00000 [K]
	Block[ 4]            0.00000 [K]
	------------------------------------------------------------------------------
	Average              0.00000 [K] +/-            0.00000 [K]

Average Cation Bend-Torsion cross term energy:
==============================================
	Block[ 0]            0.00000 [K]
	Block[ 1]            0.00000 [K]
	Block[ 2]            0.00000 [K]
	Block[ 3]            0.00000 [K]
	Block[ 4]            0.00000 [K]
	------------------------------------------------------------------------------
	Average              0.00000 [K] +/-            0.00000 [K]

Average Cation Intra Van der Waals energy:
==========================================
	Block[ 0]            0.00000 [K]
	Block[ 1]            0.00000 [K]
	Block[ 2]            0.00000 [K]
	Block[ 3]            0.00000 [K]
	Block[ 4]            0.00000 [K]
	------------------------------------------------------------------------------
	Average              0.00000 [K] +/-            0.00000 [K]

Average Cation Intra charge-charge Coulomb energy:
====================================
	Block[ 0]            0.00000 [K]
	Block[ 1]            0.00000 [K]
	Block[ 2]            0.00000 [K]
	Block[ 3]            0.00000 [K]
	Block[ 4]            0.00000 [K]
	------------------------------------------------------------------------------
	Average              0.00000 [K] +/-            0.00000 [K]

Average Cation Intra charge-bonddipole Coulomb energy:
====================================
	Block[ 0]            0.00000 [K]
	Block[ 1]            0.00000 [K]
	Block[ 2]            0.00000 [K]
	Block[ 3]            0.00000 [K]
	Block[ 4]            0.00000 [K]
	------------------------------------------------------------------------------
	Average              0.00000 [K] +/-            0.00000 [K]

Average Cation Intra bonddipole-bonddipole Coulomb energy:
====================================
	Block[ 0]            0.00000 [K]
	Block[ 1]            0.00000 [K]
	Block[ 2]            0.00000 [K]
	Block[ 3]            0.00000 [K]
	Block[ 4]            0.00000 [K]
	------------------------------------------------------------------------------
	Average              0.00000 [K] +/-            0.00000 [K]

Average Host-Host energy:
=========================
	Block[ 0] 0.00000            Van der Waals: 0.00000            Coulomb: 0.00000            [K]
	Block[ 1] 0.00000            Van der Waals: 0.00000            Coulomb: 0.00000            [K]
	Block[ 2] 0.00000            Van der Waals: 0.00000            Coulomb: 0.00000            [K]
	Block[ 3] 0.00000            Van der Waals: 0.00000            Coulomb: 0.00000            [K]
	Block[ 4] 0.00000            Van der Waals: 0.00000            Coulomb: 0.00000            [K]
	------------------------------------------------------------------------------
	Average   0.00000            Van der Waals: 0.000000           Coulomb: 0.00000            [K]
	      +/- 0.00000                       +/- 0.000000                +/- 0.00000            [K]

Average Adsorbate-Adsorbate energy:
===================================
	Block[ 0] 0.00000            Van der Waals: 0.00000            Coulomb: 0.00000            [K]
	Block[ 1] 0.00000            Van der Waals: 0.00000            Coulomb: 0.00000            [K]
	Block[ 2] 0.00000            Van der Waals: 0.00000            Coulomb: 0.00000            [K]
	Block[ 3] 0.00000            Van der Waals: 0.00000            Coulomb: 0.00000            [K]
	Block[ 4] 0.00000            Van der Waals: 0.00000            Coulomb: 0.00000            [K]
	------------------------------------------------------------------------------
	Average   0.00000            Van der Waals: 0.000000           Coulomb: 0.00000            [K]
	      +/- 0.00000                       +/- 0.000000                +/- 0.00000            [K]

Average Cation-Cation energy:
=============================
	Block[ 0] 0.00000            Van der Waals: 0.00000            Coulomb: 0.00000            [K]
	Block[ 1] 0.00000            Van der Waals: 0.00000            Coulomb: 0.00000            [K]
	Block[ 2] 0.00000            Van der Waals: 0.00000            Coulomb: 0.00000            [K]
	Block[ 3] 0.00000            Van der Waals: 0.00000            Coulomb: 0.00000            [K]
	Block[ 4] 0.00000            Van der Waals: 0.00000            Coulomb: 0.00000            [K]
	------------------------------------------------------------------------------
	Average   0.00000            Van der Waals: 0.000000           Coulomb: 0.00000            [K]
	      +/- 0.00000                       +/- 0.000000                +/- 0.00000            [K]

Average Host-Adsorbate energy:
==============================
	Block[ 0] 0.00000            Van der Waals: 0.00000            Coulomb: 0.00000            [K]
	Block[ 1] 0.00000            Van der Waals: 0.00000            Coulomb: 0.00000            [K]
	Block[ 2] 0.00000            Van der Waals: 0.00000            Coulomb: 0.00000            [K]
	Block[ 3] 0.00000            Van der Waals: 0.00000            Coulomb: 0.00000            [K]
	Block[ 4] 0.00000            Van der Waals: 0.00000            Coulomb: 0.00000            [K]
	------------------------------------------------------------------------------
	Average   0.00000            Van der Waals: 0.000000           Coulomb: 0.00000            [K]
	      +/- 0.00000                       +/- 0.000000                +/- 0.00000            [K]

Average Host-Cation energy:
===========================
	Block[ 0] 0.00000            Van der Waals: 0.00000            Coulomb: 0.00000            [K]
	Block[ 1] 0.00000            Van der Waals: 0.00000            Coulomb: 0.00000            [K]
	Block[ 2] 0.00000            Van der Waals: 0.00000            Coulomb: 0.00000            [K]
	Block[ 3] 0.00000            Van der Waals: 0.00000            Coulomb: 0.00000            [K]
	Block[ 4] 0.00000            Van der Waals: 0.00000            Coulomb: 0.00000            [K]
	------------------------------------------------------------------------------
	Average   0.00000            Van der Waals: 0.000000           Coulomb: 0.00000            [K]
	      +/- 0.00000                       +/- 0.000000                +/- 0.00000            [K]

Average Adsorbate-Cation energy:
================================
	Block[ 0] 0.00000            Van der Waals: 0.00000            Coulomb: 0.00000            [K]
	Block[ 1] 0.00000            Van der Waals: 0.00000            Coulomb: 0.00000            [K]
	Block[ 2] 0.00000            Van der Waals: 0.00000            Coulomb: 0.00000            [K]
	Block[ 3] 0.00000            Van der Waals: 0.00000            Coulomb: 0.00000            [K]
	Block[ 4] 0.00000            Van der Waals: 0.00000            Coulomb: 0.00000            [K]
	------------------------------------------------------------------------------
	Average   0.00000            Van der Waals: 0.000000           Coulomb: 0.00000            [K]
	      +/- 0.00000                       +/- 0.000000                +/- 0.00000            [K]

Host polarization energy:
=======================
	Block[ 0]            0.00000 [K]
	Block[ 1]            0.00000 [K]
	Block[ 2]            0.00000 [K]
	Block[ 3]            0.00000 [K]
	Block[ 4]            0.00000 [K]
	------------------------------------------------------------------------------
	Average              0.00000 [K] +/-            0.00000 [K]

Adsorbate polarization energy:
=======================
	Block[ 0]            0.00000 [K]
	Block[ 1]            0.00000 [K]
	Block[ 2]            0.00000 [K]
	Block[ 3]            0.00000 [K]
	Block[ 4]            0.00000 [K]
	------------------------------------------------------------------------------
	Average              0.00000 [K] +/-            0.00000 [K]

Cation polarization energy:
=======================
	Block[ 0]            0.00000 [K]
	Block[ 1]            0.00000 [K]
	Block[ 2]            0.00000 [K]
	Block[ 3]            0.00000 [K]
	Block[ 4]            0.00000 [K]
	------------------------------------------------------------------------------
	Average              0.00000 [K] +/-            0.00000 [K]

Host back-polarization energy:
=======================
	Block[ 0]            0.00000 [K]
	Block[ 1]            0.00000 [K]
	Block[ 2]            0.00000 [K]
	Block[ 3]            0.00000 [K]
	Block[ 4]            0.00000 [K]
	------------------------------------------------------------------------------
	Average              0.00000 [K] +/-            0.00000 [K]

Adsorbate back-polarization energy:
=======================
	Block[ 0]            0.00000 [K]
	Block[ 1]            0.00000 [K]
	Block[ 2]            0.00000 [K]
	Block[ 3]            0.00000 [K]
	Block[ 4]            0.00000 [K]
	------------------------------------------------------------------------------
	Average              0.00000 [K] +/-            0.00000 [K]

Cation back-polarization energy:
=======================
	Block[ 0]            0.00000 [K]
	Block[ 1]            0.00000 [K]
	Block[ 2]            0.00000 [K]
	Block[ 3]            0.00000 [K]
	Block[ 4]            0.00000 [K]
	------------------------------------------------------------------------------
	Average              0.00000 [K] +/-            0.00000 [K]

Tail-correction energy:
=======================
	Block[ 0]            0.00000 [K]
	Block[ 1]            0.00000 [K]
	Block[ 2]            0.00000 [K]
	Block[ 3]            0.00000 [K]
	Block[ 4]            0.00000 [K]
	------------------------------------------------------------------------------
	Average              0.00000 [K] +/-            0.00000 [K]

Distance-constraints energy:
=======================
	Block[ 0]            0.00000 [K]
	Block[ 1]            0.00000 [K]
	Block[ 2]            0.00000 [K]
	Block[ 3]            0.00000 [K]
	Block[ 4]            0.00000 [K]
	------------------------------------------------------------------------------
	Average              0.00000 [K] +/-            0.00000 [K]

Angle-constraints energy:
=======================
	Block[ 0]            0.00000 [K]
	Block[ 1]            0.00000 [K]
	Block[ 2]            0.00000 [K]
	Block[ 3]            0.00000 [K]
	Block[ 4]            0.00000 [K]
	------------------------------------------------------------------------------
	Average              0.00000 [K] +/-            0.00000 [K]

Dihedral-constraints energy:
=======================
	Block[ 0]            0.00000 [K]
	Block[ 1]            0.00000 [K]
	Block[ 2]            0.00000 [K]
	Block[ 3]            0.00000 [K]
	Block[ 4]            0.00000 [K]
	------------------------------------------------------------------------------
	Average              0.00000 [K] +/-            0.00000 [K]

Inversion-bend constraints energy:
=======================
	Block[ 0]            0.00000 [K]
	Block[ 1]            0.00000 [K]
	Block[ 2]            0.00000 [K]
	Block[ 3]            0.00000 [K]
	Block[ 4]            0.00000 [K]
	------------------------------------------------------------------------------
	Average              0.00000 [K] +/-            0.00000 [K]

Out-of-plane-distance constraints energy:
=======================
	Block[ 0]            0.00000 [K]
	Block[ 1]            0.00000 [K]
	Block[ 2]            0.00000 [K]
	Block[ 3]            0.00000 [K]
	Block[ 4]            0.00000 [K]
	------------------------------------------------------------------------------
	Average              0.00000 [K] +/-            0.00000 [K]

Exclusion-constraints energy:
=======================
	Block[ 0]            0.00000 [K]
	Block[ 1]            0.00000 [K]
	Block[ 2]            0.00000 [K]
	Block[ 3]            0.00000 [K]
	Block[ 4]            0.00000 [K]
	------------------------------------------------------------------------------
	Average              0.00000 [K] +/-            0.00000 [K]

Total energy:
=============
	Block[ 0]            0.00000 [K]
	Block[ 1]            0.00000 [K]
	Block[ 2]            0.00000 [K]
	Block[ 3]            0.00000 [K]
	Block[ 4]            0.00000 [K]
	------------------------------------------------------------------------------
	Average              0.00000 [K] +/-            0.00000 [K]

Number of molecules:
====================

Component 0 [helium]
-------------------------------------------------------------
	Block[ 0] 0.00000            [-]
	Block[ 1] 0.00000            [-]
	Block[ 2] 0.00000            [-]
	Block[ 3] 0.00000            [-]
	Block[ 4] 0.00000            [-]
	------------------------------------------------------------------------------
	Average loading absolute                              0.0000000000 +/-       0.0000000000 [-]
	Average loading absolute [molecules/unit cell]        0.0000000000 +/-       0.0000000000 [-]
	Average loading absolute [mol/kg framework]                  0.0000000000 +/-       0.0000000000 [-]
	Average loading absolute [milligram/gram framework]          0.0000000000 +/-       0.0000000000 [-]
	Average loading absolute [cm^3 (STP)/gr framework]           0.0000000000 +/-       0.0000000000 [-]
	Average loading absolute [cm^3 (STP)/cm^3 framework]         0.0000000000 +/-       0.0000000000 [-]

	Block[ 0] 0.00000            [-]
	Block[ 1] 0.00000            [-]
	Block[ 2] 0.00000            [-]
	Block[ 3] 0.00000            [-]
	Block[ 4] 0.00000            [-]
	------------------------------------------------------------------------------
	Average loading excess                              0.0000000000 +/-       0.0000000000 [-]
	Average loading excess [molecules/unit cell]        0.0000000000 +/-       0.0000000000 [-]
	Average loading excess [mol/kg framework]                    0.0000000000 +/-       0.0000000000 [-]
	Average loading excess [milligram/gram framework]            0.0000000000 +/-       0.0000000000 [-]
	Average loading excess [cm^3 (STP)/gr framework]             0.0000000000 +/-       0.0000000000 [-]
	Average loading excess [cm^3 (STP)/cm^3 framework]           0.0000000000 +/-       0.0000000000 [-]


Average Widom Rosenbluth factor:
================================
	Block[ 0] 0.153321 [-]
	Block[ 1] 0.152711 [-]
	Block[ 2] 0.155763 [-]
	Block[ 3] 0.155354 [-]
	Block[ 4] 0.153305 [-]
	------------------------------------------------------------------------------
	[helium] Average Widom Rosenbluth-weight:   0.154091 +/- 0.001701 [-]

Average Widom chemical potential:
=================================
	Block[ 0] -2653.86 [-]
	Block[ 1] -2652.66 [-]
	Block[ 2] -2658.6 [-]
	Block[ 3] -2657.81 [-]
	Block[ 4] -2653.83 [-]
	------------------------------------------------------------------------------
	[helium] Average chemical potential:   -2655.35 +/- 3.306695 [K]

Average Widom Ideal-gas contribution:
=====================================
	Block[ 0] -3216.43 [-]
	Block[ 1] -3216.43 [-]
	Block[ 2] -3216.43 [-]
	Block[ 3] -3216.43 [-]
	Block[ 4] -3216.43 [-]
	------------------------------------------------------------------------------
	[helium] Average Widom Ideal-gas chemical potential:   -3216.43 +/- 0.000000 [-]

Average Widom excess contribution:
==================================
	Block[ 0] 562.567 [-]
	Block[ 1] 563.763 [-]
	Block[ 2] 557.827 [-]
	Block[ 3] 558.615 [-]
	Block[ 4] 562.599 [-]
	------------------------------------------------------------------------------
	[helium] Average Widom excess chemical potential:   561.074 +/- 3.306695 [-]

Average Gibbs Widom Rosenbluth factor:
======================================
	Block[ 0] 0 [-]
	Block[ 1] 0 [-]
	Block[ 2] 0 [-]
	Block[ 3] 0 [-]
	Block[ 4] 0 [-]
	------------------------------------------------------------------------------
	[helium] Average Gibbs Widom Rosenbluth-weight:   0 +/- 0.000000 [-]

Average Gibbs Widom chemical potential:
=======================================
	Block[ 0] 0 [-]
	Block[ 1] 0 [-]
	Block[ 2] 0 [-]
	Block[ 3] 0 [-]
	Block[ 4] 0 [-]
	------------------------------------------------------------------------------
	[helium] Average Gibbs chemical potential:   0 +/- 0.000000 [K]

Average osmostat calibration for alchemical transformation:
=======================================
	Block[ 0] 0 [-]
	Block[ 1] 0 [-]
	Block[ 2] 0 [-]
	Block[ 3] 0 [-]
	Block[ 4] 0 [-]
	------------------------------------------------------------------------------
	Average osmostat calibration for alchemical transformation:   0 +/- 0.000000 [K]
	Average osmostat calibration for alchemical transformation:   0 +/- 0.000000 [kJ/mol]

Average Gibbs Widom Ideal-gas contribution:
===========================================
	Block[ 0] 0 [-]
	Block[ 1] 0 [-]
	Block[ 2] 0 [-]
	Block[ 3] 0 [-]
	Block[ 4] 0 [-]
	------------------------------------------------------------------------------
	[helium] Average Gibbs Ideal-gas chemical potential:   0 +/- 0.000000 [-]

Average Gibbs Widom excess contribution:
===========================================
	Block[ 0] 0 [-]
	Block[ 1] 0 [-]
	Block[ 2] 0 [-]
	Block[ 3] 0 [-]
	Block[ 4] 0 [-]
	------------------------------------------------------------------------------
	[helium] Average Gibbs excess chemical potential:   0 +/- 0.000000 [-]

Average Henry coefficient:
==========================
	Block[ 0] 2.94412e-08 [mol/kg/Pa]
	Block[ 1] 2.93241e-08 [mol/kg/Pa]
	Block[ 2] 2.99101e-08 [mol/kg/Pa]
	Block[ 3] 2.98317e-08 [mol/kg/Pa]
	Block[ 4] 2.94381e-08 [mol/kg/Pa]
	------------------------------------------------------------------------------
	[helium] Average Henry coefficient:  2.9589e-08 +/- 3.26571e-10 [mol/kg/Pa]

Average adsorption energy <U_gh>_1-<U_h>_0 obtained from Widom-insertion:
(Note: the total heat of adsorption is dH=<U_gh>_1-<U_h>_0 - <U_g> - RT)
=========================================================================
	Block[ 0] -417.2025355130    [K]
	Block[ 1] -418.9881341020    [K]
	Block[ 2] -419.7876802858    [K]
	Block[ 3] -418.1252754224    [K]
	Block[ 4] -418.8429643003    [K]
	------------------------------------------------------------------------------
	[helium] Average  <U_gh>_1-<U_h>_0:     -418.5893179247 +/-       1.2097061549 [K]       (     -3.4803461994 +/-       0.0100580594 kJ/mol)

Simulation finished,  0 warnings


Wed Jul  9 11:27:34 2025
Simulation finished on Wednesday, July 09.
The end time was 11:27 AM.

